/*--------------------------------*- C++ -*----------------------------------*\
  =========                 |
  \\      /  F ield         | OpenFOAM: The Open Source CFD Toolbox
   \\    /   O peration     | Website:  https://openfoam.org
    \\  /    A nd           | Version:  8
     \\/     M anipulation  |
\*---------------------------------------------------------------------------*/
FoamFile
{
    version     2.0;
    format      ascii;
    class       surfaceScalarField;
    location    "0.056";
    object      phi;
}
// * * * * * * * * * * * * * * * * * * * * * * * * * * * * * * * * * * * * * //

dimensions      [0 3 -1 0 0 0 0];

internalField   nonuniform List<scalar> 
1107
(
0.000315988
-0.000643388
0.000633495
-0.000306094
0.000616968
-0.00030098
-2.9687e-05
0.000646655
0.000304963
0.000538556
-0.000106655
-0.000736864
-0.000968718
0.000630292
-9.76557e-05
0.000701463
0.000286064
-5.36022e-05
-1.49162e-05
-3.72716e-05
0.000683927
-3.30508e-05
1.43466e-05
-8.79505e-05
0.000180753
-0.000148835
-6.49691e-05
0.000300273
-0.000856384
-0.00126768
0.000599239
-0.000207463
0.000740099
0.000760964
-9.67723e-05
4.17063e-05
0.000814903
-9.56455e-05
3.58076e-06
-4.28364e-05
-1.13355e-05
0.000725633
0.000853053
2.99196e-05
-6.80696e-05
6.4473e-05
-0.000126751
-8.6557e-05
2.51488e-05
-4.86263e-05
0.000227397
-0.00014076
-0.000213387
0.000277849
-0.000115422
0.000296553
-0.000875089
-0.0015106
0.000539474
-0.000366491
0.000758267
0.000828759
-0.000185432
0.000899211
-0.000166098
5.21558e-06
-2.29031e-05
-6.11991e-06
-2.22849e-05
0.000865028
1.03098e-05
0.000755552
0.000946141
-0.000115
0.00096343
-3.95737e-05
0.000951809
-2.39006e-05
3.55217e-05
3.5404e-05
-7.27543e-05
-4.92066e-05
1.36219e-05
-2.68443e-05
-8.24022e-05
-0.000131113
0.000322168
-0.000215175
-0.00032038
0.000397173
-0.000190426
0.000306688
-0.000784604
0.00045987
-0.00166379
-0.000570341
0.000743324
0.000880851
-0.000308016
0.00096841
-0.000253657
2.99795e-06
-1.22792e-05
-3.12195e-06
8.81529e-05
0.000916855
-5.31995e-05
0.000853447
-1.23199e-05
0.000765862
0.00102605
-0.000172642
0.0010504
-6.392e-05
0.00103956
4.63651e-05
0.000999351
0.000128358
-0.000118489
0.000932763
0.000185076
5.74533e-05
-0.000104206
-3.56495e-05
2.76051e-05
-1.93585e-05
1.04142e-05
-9.65347e-06
-0.000129772
-0.000216515
-6.19195e-05
-0.000172059
0.000691186
-0.000801658
0.000902279
-0.000466972
0.00101085
-0.000362222
2.20823e-06
-4.07318e-06
-9.13721e-07
0.000865618
-6.72518e-05
0.000823918
-2.36702e-05
0.000753543
0.000822817
-0.000147379
0.000257325
0.00107949
-0.000241289
0.00111056
-9.49868e-05
0.00110223
5.46911e-05
0.00105814
0.00017245
0.000974399
0.000268817
4.56528e-05
-3.06086e-05
-7.69637e-05
2.44423e-05
-1.4439e-05
1.14686e-05
-6.38473e-06
4.2796e-06
-2.46451e-06
0.000877193
-0.000652979
0.00100518
-0.000490204
8.82626e-07
-6.76209e-07
-3.10935e-08
0.000334105
0.000669995
-0.000181282
0.000790587
-7.23482e-05
0.0007856
-2.89334e-05
0.000729872
0.000827167
0.000404557
0.000622639
0.000538632
0.000388278
-0.00129504
0.0015294
0.00108431
-0.000320428
0.00112413
-0.000134804
0.00112293
5.5898e-05
0.00107754
0.00021784
0.000975047
0.000371305
-3.58725e-05
-5.57989e-05
6.10628e-05
-1.9269e-05
-3.10425e-05
-9.09287e-06
-1.65608e-05
-3.38015e-06
-8.17723e-06
-6.70657e-07
-3.3857e-06
-7.0175e-07
0.000988048
0.000345368
-0.000945138
0.000371502
-0.000996547
0.000688039
-7.87338e-05
0.000739092
-2.58407e-05
0.000700939
0.000793359
0.000586246
0.000547491
0.0007845
0.000411854
0.00166504
0.000483288
0.000916613
-5.78772e-05
-9.54211e-05
9.74994e-05
-3.13288e-05
-5.7591e-05
-1.47855e-05
-3.31041e-05
-5.47308e-06
-1.74897e-05
-1.09566e-06
-7.76312e-06
-1.79741e-06
0.000101525
0.000300588
-5.67453e-05
0.000227744
-0.00080138
0.000357805
-0.000666313
0.000680873
-2.0515e-05
0.000675098
0.000415781
0.000169033
-4.46083e-05
-0.000125323
7.45102e-05
-2.4519e-05
-7.76803e-05
-1.17975e-05
-4.58256e-05
-4.48783e-06
-2.47993e-05
-9.72934e-07
-1.1278e-05
-2.77034e-06
0.000246535
0.000202868
-0.000148815
0.00020129
-3.0291e-05
0.00013622
-0.000579795
0.000342993
-0.000328432
0.000654583
0.000297573
0.000364743
-1.474e-05
-0.000134182
2.35994e-05
-8.35357e-06
-8.40667e-05
-4.13439e-06
-5.00448e-05
-1.65858e-06
-2.72751e-05
-4.04738e-07
-1.25319e-05
-3.17508e-06
0.000150031
0.000136391
-8.35542e-05
0.000129036
-7.65615e-05
0.000120965
-1.5036e-05
7.00029e-05
-0.000306805
0.000326151
0.000201767
0.000245837
1.40093e-05
-0.000122519
-2.56727e-05
7.11938e-06
-7.71768e-05
3.17263e-06
-4.60981e-05
1.11941e-06
-2.52219e-05
1.79912e-07
-1.15924e-05
-2.99517e-06
0.000129889
7.88351e-05
-7.23332e-05
8.59292e-05
-4.04475e-05
7.41646e-05
-2.97609e-05
5.93395e-05
-4.37263e-06
1.93463e-05
0.000119871
0.000211785
-8.92094e-05
5.99276e-05
0.000149153
1.6231e-05
-3.57751e-05
-0.000102975
7.58315e-06
-6.85289e-05
3.24187e-06
-4.17568e-05
1.1698e-06
-2.31498e-05
2.25242e-07
-1.06478e-05
-2.76993e-06
3.84627e-05
-4.8837e-05
4.85874e-05
-3.49914e-05
4.90253e-05
-1.53082e-05
3.54139e-05
-5.83525e-06
1.49737e-05
-5.22351e-05
2.39843e-05
8.81784e-05
-3.18643e-05
5.76668e-05
-6.75593e-05
-1.25502e-05
-4.24638e-05
-2.81358e-06
-2.03844e-05
-5.5835e-06
1.45071e-05
-2.82795e-05
2.31072e-05
-2.33567e-05
2.72213e-05
-1.31874e-05
2.31873e-05
-3.08158e-06
9.13844e-06
4.94262e-06
-2.5796e-05
4.48377e-05
-2.07286e-06
7.05584e-06
7.24212e-06
-1.22251e-05
-1.29697e-05
5.59964e-05
-6.34111e-05
-1.85533e-05
-1.90976e-06
-8.21609e-06
1.50685e-05
2.34055e-06
-1.36294e-05
8.21223e-06
-1.33846e-05
1.26412e-05
-8.77657e-06
1.2715e-05
-2.71507e-06
6.05686e-06
1.55791e-06
4.36843e-06
-7.9992e-06
-4.98161e-07
3.46204e-06
4.09198e-06
-1.88536e-06
8.46614e-06
-1.68334e-05
1.02527e-05
-3.0839e-06
-3.40611e-07
1.51475e-06
-1.77899e-06
-4.09654e-06
9.03516e-07
-6.32072e-06
4.24198e-06
-4.9854e-06
5.7878e-06
-1.8494e-06
3.34179e-06
3.49402e-06
1.69814e-06
-3.63424e-06
1.67101e-06
2.19927e-06
1.17442e-07
1.45924e-06
-7.51599e-07
3.04325e-06
6.17451e-06
-2.67902e-06
4.80774e-06
-2.3861e-05
2.17323e-05
-2.16249e-06
2.15904e-06
-3.08044e-06
-2.22533e-06
1.05751e-07
-1.40768e-06
-1.78534e-06
2.40408e-07
-2.31915e-06
1.84375e-06
-1.04136e-06
1.49239e-06
3.82992e-06
-3.39952e-07
4.04851e-09
2.65221e-06
7.16948e-07
1.33442e-06
9.82293e-07
2.4181e-07
4.65833e-07
-2.00299e-07
5.64539e-07
-5.82048e-07
5.38979e-06
-1.20787e-06
1.732e-06
-2.68662e-06
-1.39795e-06
1.33166e-06
-1.47317e-06
1.71239e-07
-9.34523e-07
-6.10401e-07
5.75246e-09
-4.81143e-07
4.51036e-07
2.6946e-06
-2.26767e-06
3.40299e-06
2.64583e-06
-3.33558e-07
1.79393e-06
2.57437e-07
8.80692e-07
3.43413e-07
1.82417e-07
8.31167e-08
-1.75083e-08
-1.67765e-06
-9.46194e-07
1.41597e-06
-6.5774e-07
9.91786e-07
-8.37637e-07
6.96133e-07
-8.68798e-07
1.05517e-07
-4.93761e-07
-1.10884e-07
-3.0106e-08
1.4961e-06
-2.02604e-06
3.22455e-06
1.71866e-06
-1.34049e-06
1.67713e-06
-2.16763e-07
1.07136e-06
6.67683e-08
4.61023e-07
6.48067e-08
6.56081e-08
-2.45605e-06
-1.38778e-06
2.16618e-06
-1.04071e-06
-5.63222e-07
-3.35328e-07
4.89477e-07
-4.52826e-07
2.80163e-07
-4.2118e-07
3.29383e-08
-1.40989e-07
2.1449e-06
1.27022e-06
-1.91902e-06
8.32256e-07
-1.13962e-06
1.01294e-06
-6.76299e-07
9.54808e-07
-1.00212e-07
5.22295e-07
5.49564e-09
1.30414e-07
-2.91811e-06
-7.48956e-07
1.21101e-06
-1.62422e-06
-8.04274e-07
-6.06913e-07
-2.91637e-07
-1.5195e-07
1.88601e-07
-2.0296e-07
6.19438e-08
-1.0805e-07
-2.81849e-06
1.88695e-07
-2.88309e-07
1.2874e-06
-1.96099e-06
1.34517e-06
7.5731e-07
4.30174e-07
-5.56854e-07
5.41832e-07
-2.63324e-07
4.48462e-07
-2.63785e-08
1.3591e-07
-1.94799e-06
-4.25184e-07
-1.0078e-06
-4.03383e-07
-3.23836e-07
-1.19751e-07
-5.33453e-08
3.89865e-08
-4.61064e-08
-1.87355e-06
1.14257e-07
7.59028e-07
7.94855e-07
3.92631e-07
1.98274e-07
-2.13295e-07
2.4099e-07
-5.58517e-08
1.09532e-07
-1.2216e-06
-2.11392e-07
-5.68491e-07
-1.58728e-07
-1.45373e-07
-2.77224e-08
-7.12079e-09
-1.16786e-06
6.05221e-08
3.86022e-07
4.29672e-07
1.61235e-07
7.13367e-08
-4.36403e-08
5.36805e-08
-6.95922e-07
-8.39615e-08
-2.68508e-07
-3.55944e-08
-3.48433e-08
-6.61658e-07
2.62579e-08
1.54036e-07
1.95114e-07
3.74579e-08
1.00406e-08
-3.32823e-07
-1.96465e-08
-7.04377e-08
-3.13827e-07
7.26191e-09
3.53237e-08
4.74985e-08
-9.00841e-08
-8.28223e-08
0.000597179
-0.00138178
-0.00106661
0.000323398
-0.000539913
0.000860686
-0.000537287
0.000540306
0.00130423
-0.000763929
0.00111381
-0.000267974
0.00157005
-0.00183802
0.000503445
-0.000298213
-0.00139487
0.000630939
0.000139435
-0.000311494
-0.000400478
4.44299e-05
-0.000121394
-0.000267064
0.000331821
-0.000732299
0.00117712
-0.000845295
0.000639829
-0.000755039
0.00207398
-0.00144304
0.000235954
0.0013096
-0.00107364
0.00101138
0.000358404
0.00101915
-0.00177419
-0.00042389
-6.03309e-05
0.000230332
-0.000290663
-3.67327e-05
-0.000769032
-6.74142e-05
-0.000701618
0.00137377
-0.00144118
0.000528472
-0.00124572
0.00142791
-0.0018518
0.000354267
0.000886877
-0.00053261
-0.00124528
0.000755077
-0.00137886
0.00105843
-0.000623783
0.000989676
-0.00223539
-0.000862123
0.000861318
0.000803721
0.00177793
-0.000412768
0.000999013
-0.00149354
0.00135873
-0.000435105
-0.00116192
0.000749148
-0.00079061
-0.00132468
0.00138058
3.40538e-05
-0.00129304
0.000502428
-0.0010752
0.000305378
-0.000193163
0.000132804
-0.000325967
-0.000568814
0.000281115
-0.000849929
-0.00116007
0.000202346
-0.00136241
-0.00203305
0.001143
-0.00200513
-0.000610393
-1.33901e-05
-0.000666551
0.000231446
-0.000679941
-2.51621e-05
-0.00200789
-0.00203029
-0.000901345
0.00170507
-0.000116845
0.000882168
0.000282127
0.0014958
0.00198719
0.00166484
-2.61265e-05
0.000908295
-0.00101599
0.000989868
-0.000266847
-0.000585807
0.000619861
-0.000354361
-0.000970396
0.000703549
-0.000467968
-0.000797048
0.00032908
-0.00049167
0.000128191
-0.000251457
8.11504e-05
-0.000332607
-0.000768779
3.48239e-05
-0.000803603
-0.00132759
-0.000351148
-0.00097644
-0.00235903
0.000885491
-0.00123985
0.000205551
-0.00182474
-0.00142669
0.000186834
0.000920667
-0.0027454
-0.00143837
0.000539375
0.00144782
0.00144767
-0.0010087
0.00137345
0.000656132
0.00210395
9.9688e-05
0.00134798
0.00108956
4.51483e-05
0.00104441
0.000748697
0.000219345
0.000529352
0.000548425
0.000676616
-0.00075007
-0.000309008
9.97516e-06
-0.000318983
-0.000793627
-0.000349482
-0.000444145
-0.00132592
-0.000424915
-0.000901007
-0.00186328
0.00201435
-0.00182752
-0.000731054
0.00173303
-0.0024831
-9.44858e-05
0.00128845
-0.0020195
-0.000574834
-0.00061666
0.000862497
0.000756787
-0.00121205
0.00196884
0.000891895
0.00223988
0.00140721
0.000832669
0.00245162
0.00298097
-0.000632808
0.00205858
-0.00142578
0.00311591
-0.000134941
-0.000344656
0.000564919
-0.00113975
-9.40599e-05
-0.000250596
-0.000538205
-0.0001192
-0.000419006
-0.00102021
-0.000455288
0.00182337
0.000235219
-0.00172888
-0.000290622
-0.000732573
0.000967792
-0.000976794
-0.000162959
0.000647901
-0.000938522
-0.000328893
-0.00117793
0.000445355
-0.00032494
0.000536725
0.000537557
2.7777e-05
-0.00060506
0.000577283
-0.00115015
-0.000122737
0.000348868
-0.000226131
-0.000727797
-0.000702048
0.0012396
0.00126679
0.00209946
-0.00034154
-0.000808611
-0.00176732
0.00121682
0.000882648
0.00108187
-0.000685442
-0.000286371
0.000394725
-0.000557684
-0.000676374
0.000221086
-0.000281649
-0.000125806
-0.000160565
-0.000544812
-0.000323725
-0.00126014
0.000321621
-0.000292351
-0.000608103
0.000315752
-0.000162748
-0.000502816
-5.48676e-05
0.00083171
-0.000510089
-0.000675976
0.000513228
-9.86933e-05
0.000368624
-1.97562e-05
0.000269931
-0.000219327
0.000199571
1.7147e-05
0.000144487
-0.000161634
-0.00020218
-0.00042831
-0.000258967
-0.000169343
-0.000112804
0.000261956
0.000423922
-0.000148876
0.000572798
0.00109073
0.000316874
-0.000575841
-0.000410923
-0.00121953
0.000468953
0.000621775
-0.000666159
-0.000553375
0.0013516
-2.1531e-05
0.000109709
0.000240425
0.000113837
-0.000274402
-1.08622e-05
-0.000466049
0.0001844
-0.000520917
-0.000100931
-0.000173471
-0.000424656
-0.000240256
0.000483283
2.99453e-05
-0.000799035
0.000288946
-0.000531623
1.07058e-05
-0.000242677
-0.000300543
0.000330489
-0.000346178
4.56352e-05
-7.62475e-05
-0.000238508
0.000162261
-3.89375e-05
-0.000131853
9.29159e-05
1.2634e-05
5.4993e-06
2.4341e-05
-2.98403e-05
1.27414e-05
-2.40214e-05
4.83624e-05
6.97045e-05
-9.37259e-05
8.23385e-05
-4.68756e-05
-4.68504e-05
-0.00020851
-2.42172e-05
-5.62313e-06
-7.10675e-05
-1.78482e-05
-0.000102155
-0.000106355
-0.000271498
-0.000104049
-0.000167449
-0.000679889
-9.40704e-05
0.000334496
0.000478727
0.0011005
-0.000443107
-0.000236782
0.000996482
0.00010402
1.86498e-05
2.61879e-05
0.000128359
4.64751e-05
8.18842e-05
0.000380971
5.40267e-05
-0.000227498
1.35326e-05
-7.32713e-05
-0.000154226
-0.000313528
-0.000302822
-0.000234768
-6.80536e-05
-0.000477445
-0.000146957
0.000191771
-2.951e-05
-0.000237406
9.04492e-05
5.33948e-05
2.89437e-05
0.000146311
0.000116801
4.09286e-05
7.43379e-06
6.98723e-05
1.76865e-05
-4.90589e-05
-2.20086e-05
-0.000155414
-2.30339e-05
5.18566e-06
-4.50425e-05
-2.81351e-06
1.51666e-05
-9.81362e-08
4.13546e-05
-0.000103091
-5.23231e-05
-0.00027054
-0.000148424
-0.000122116
-0.000385207
0.000341667
3.93041e-05
0.000445687
6.04801e-05
9.35717e-06
3.19974e-05
9.12414e-05
0.000130546
9.69943e-05
-2.71221e-05
0.000213795
-0.000236191
8.19643e-05
-0.000304244
-1.85533e-05
-5.38978e-06
-8.02101e-06
7.92287e-06
-6.50624e-06
-4.06674e-05
-4.37502e-06
-9.29905e-05
-1.26752e-05
9.86168e-06
-1.70502e-05
6.22747e-06
1.1372e-05
-3.44908e-06
4.33693e-05
-7.50451e-05
-1.79455e-05
-0.000197161
-0.000136681
3.33462e-05
1.00231e-05
0.000163892
2.72109e-05
-8.34686e-06
4.89776e-06
5.05636e-06
-8.13679e-06
-1.44988e-06
-9.79674e-06
-7.62791e-07
-7.374e-06
-3.44941e-06
-3.02632e-05
1.3213e-05
-4.82087e-05
-1.80301e-06
8.03048e-06
1.14101e-05
8.03456e-06
1.30837e-05
-8.18591e-06
2.31068e-05
3.04788e-05
-7.37197e-06
-5.76897e-05
9.48098e-06
-4.37998e-07
-9.35874e-06
-8.62391e-06
-2.50493e-06
-4.86907e-06
-1.18637e-05
-2.03344e-06
-6.90251e-06
2.80287e-06
8.60719e-06
1.22839e-05
-4.22809e-06
7.6311e-06
3.80647e-06
1.24137e-05
-2.51854e-06
-6.10537e-06
-9.89051e-06
-1.11736e-05
1.28306e-06
1.11028e-06
8.24809e-07
6.80629e-06
4.04937e-06
-8.12335e-06
-3.74033e-06
-1.42287e-05
-4.73632e-06
-8.47665e-06
5.02145e-07
6.30415e-06
1.29158e-05
1.40261e-05
-1.29003e-05
-1.3284e-06
1.16173e-05
2.40883e-06
2.13036e-06
8.4345e-06
-7.26564e-06
-8.59404e-06
-8.88235e-06
6.47352e-06
)
;

boundaryField
{
    movingWall
    {
        type            calculated;
        value           uniform 0;
    }
    fixedWalls
    {
        type            calculated;
        value           uniform 0;
    }
    frontAndBack
    {
        type            empty;
        value           nonuniform List<scalar> 0();
    }
    defaultFaces
    {
        type            empty;
        value           nonuniform List<scalar> 0();
    }
}


// ************************************************************************* //
