/*--------------------------------*- C++ -*----------------------------------*\
  =========                 |
  \\      /  F ield         | OpenFOAM: The Open Source CFD Toolbox
   \\    /   O peration     | Website:  https://openfoam.org
    \\  /    A nd           | Version:  8
     \\/     M anipulation  |
\*---------------------------------------------------------------------------*/
FoamFile
{
    version     2.0;
    format      ascii;
    class       volScalarField;
    location    "0.064";
    object      p;
}
// * * * * * * * * * * * * * * * * * * * * * * * * * * * * * * * * * * * * * //

dimensions      [0 2 -2 0 0 0 0];

internalField   nonuniform List<scalar> 
424
(
-4.55657e-06
0.0549452
0.0135797
0.118121
0.0956772
0.247625
0.102414
0.0550399
0.27753
0.49554
0.47899
0.491875
0.011467
-0.15048
0.50811
0.749804
0.508317
0.513985
-0.421992
-0.184053
0.749235
1.00248
0.672874
0.67359
-0.674185
-0.436599
-0.380986
-0.396397
0.988425
1.26992
1.47599
1.53836
0.850202
0.848282
-3.52156
-0.889008
-1.11168
-1.3891
-0.676894
-0.41237
-0.41752
1.23577
1.42964
1.52558
1.41535
1.00685
1.00449
-2.88775
-2.65087
-0.887299
-1.12254
-1.18074
-0.57692
-0.57814
1.4328
1.47052
1.02533
1.02155
-2.26893
-1.12624
-0.759554
-0.757246
1.51791
1.67541
-1.05154
-0.621393
-0.946266
-0.945208
1.92538
1.7087
-0.0206656
-0.598838
-1.01223
-1.03645
2.18169
1.93777
1.8983
1.91152
0.728319
0.00851908
4.37589
2.40411
1.47385
2.10453
2.6824
5.25519
2.88577
2.61766
2.17947
1.94303
1.94877
0.733714
-0.386794
3.94779
2.39746
1.45938
2.08229
2.56929
4.53662
2.64151
2.62751
2.10507
2.10581
-0.162741
-0.412594
2.29276
2.29031
0.393137
-0.163116
2.48809
2.49279
0.97926
0.392568
2.57514
2.60595
1.56102
0.978229
1.82267
1.55616
1.8408
0.130964
0.0406128
0.0477928
0.0788354
0.0946106
0.165937
-0.0272781
0.0103155
0.224512
0.318154
0.333377
0.151107
0.17773
0.219206
0.336159
0.30376
0.294933
0.445439
0.461657
0.446459
0.0654893
-0.000492793
0.0704005
0.0359204
-0.0162701
-0.0625806
-0.0402163
-0.160888
-0.0822154
-0.189132
0.00096169
0.044983
0.0690647
0.113929
0.305977
0.169841
0.363391
0.353389
0.490763
0.51137
0.583998
0.513442
0.599111
-0.030807
-0.033043
-0.185972
-0.202723
-0.231946
-0.267437
-0.271631
-0.0484854
-0.281759
-0.0948433
-0.233465
0.643112
0.639064
0.751046
0.783357
0.679197
0.784464
-0.293679
-0.281609
-0.439145
-0.338938
-0.401503
-0.381383
-0.348948
0.885761
0.885152
0.985869
0.958334
1.05253
0.853803
0.943807
-0.546829
-0.672297
-0.503754
-0.554939
-0.419953
-0.515275
1.13596
1.15073
1.2072
1.21798
1.27455
1.22129
1.10959
1.18321
1.00481
1.08282
-0.788783
-0.883634
-0.696327
-0.776873
-0.583081
-0.700537
1.32538
1.30432
1.31731
1.35457
1.40205
1.38621
1.38254
1.38614
1.39077
1.49791
1.50041
1.44976
1.18467
1.27084
1.03846
1.18546
1.35378
1.38436
1.45393
-1.2654
-1.65517
-2.50196
-2.08796
-1.01827
-1.1173
-1.23151
-1.01888
-0.868096
-0.935382
-0.764245
-0.869991
-1.14725
-1.25486
1.50177
1.4476
1.45842
1.45282
1.51798
1.45795
1.46853
1.51758
1.56269
1.58835
1.68705
1.3404
1.4359
1.51167
1.49516
1.13832
1.26318
-1.4876
-1.41868
-1.63489
-1.23537
-1.08021
-1.10403
-1.14899
-1.00609
-1.07051
-0.942558
-1.01912
-0.854653
-1.19492
-1.10098
-1.07425
-1.11787
-1.22075
1.56627
1.62305
1.69907
1.55625
1.73551
1.73053
1.76242
1.78544
1.56425
1.77376
1.61189
1.73809
-0.817807
-0.723152
-0.941027
-0.594328
-0.698818
-0.564768
-1.09593
-1.10538
-0.7467
-0.756848
-1.02292
-1.12658
-1.03851
-1.07745
-1.24115
-1.172
-1.05086
-0.753268
1.77593
1.78998
1.94084
1.86885
1.91345
1.88614
1.87284
-0.395469
-0.399237
0.0271638
-0.357067
-0.0567713
-0.41174
-0.344861
-1.40075
-1.31499
-1.08181
-1.21413
-1.15624
-1.51014
-1.48562
-1.19796
2.06705
2.18188
2.01575
2.06495
1.94686
2.03003
0.311372
0.738187
0.0737643
0.32758
-0.160599
0.14525
-1.13431
3.71446
4.0668
2.31328
2.39275
2.1887
2.31081
2.11144
2.20104
1.14674
1.45224
0.806036
1.13722
0.417343
0.792421
2.57847
3.13397
2.5337
2.62168
1.88886
2.07566
2.3738
2.73885
3.01105
2.74797
3.2176
2.65032
2.52464
2.40089
2.47262
2.29177
2.39322
1.90381
1.44094
1.52927
0.981556
1.35575
2.28351
2.92141
2.65901
2.62053
2.17944
2.2052
2.79792
2.6801
2.70141
2.67882
2.58136
2.59595
2.479
2.58925
1.7919
2.03815
1.56981
1.77238
2.39697
2.65506
2.62625
2.64324
2.15864
2.35992
2.76896
2.63487
2.67418
2.59413
2.66897
1.84543
2.12325
2.62704
2.97747
2.88875
2.53057
2.56605
3.09529
3.05861
2.6379
2.55882
)
;

boundaryField
{
    movingWall
    {
        type            zeroGradient;
    }
    fixedWalls
    {
        type            zeroGradient;
    }
    frontAndBack
    {
        type            empty;
    }
    defaultFaces
    {
        type            empty;
    }
}


// ************************************************************************* //
