/*--------------------------------*- C++ -*----------------------------------*\
  =========                 |
  \\      /  F ield         | OpenFOAM: The Open Source CFD Toolbox
   \\    /   O peration     | Website:  https://openfoam.org
    \\  /    A nd           | Version:  8
     \\/     M anipulation  |
\*---------------------------------------------------------------------------*/
FoamFile
{
    version     2.0;
    format      ascii;
    class       volScalarField;
    location    "0.064";
    object      p;
}
// * * * * * * * * * * * * * * * * * * * * * * * * * * * * * * * * * * * * * //

dimensions      [0 2 -2 0 0 0 0];

internalField   nonuniform List<scalar> 
656
(
5.50783e-07
-0.235414
1.72859
-0.786699
0.189109
1.73123
-1.15106
-1.55284
2.05499
1.70641
1.76606
-0.438537
0.38613
1.74772
2.0345
2.25919
1.63659
1.58731
2.26846
2.39138
1.80211
1.82118
1.7864
1.81791
-0.0678276
0.616182
1.77438
2.01725
2.25043
1.84381
1.86662
2.55672
2.39635
2.38637
2.55444
2.69001
2.15654
2.17264
2.13724
1.78224
1.85334
0.28047
0.818513
1.80944
2.00691
2.24336
2.18687
2.19943
2.86034
2.69083
2.55898
2.3821
2.55204
2.68875
2.86083
3.02753
2.16148
2.17586
2.18741
2.12039
2.14581
1.82908
2.00076
2.23603
2.19769
2.20651
3.02635
2.85843
2.69132
3.34495
2.37749
2.54909
2.68638
2.85972
3.02739
2.18273
2.19279
2.19461
2.19413
1.98959
2.22565
2.19342
2.19288
3.61246
3.34065
3.02256
2.85605
3.34549
3.56247
4.81661
2.36919
2.54658
2.68238
2.85998
3.02874
2.09326
2.08872
2.09005
2.09223
2.09411
2.09547
5.39496
5.07757
3.6536
3.32844
3.01721
3.35163
3.52785
4.58588
5.00428
2.11808
2.10184
2.09352
2.08718
2.08106
2.07562
3.46393
5.83362
5.3038
3.68495
3.31177
3.39808
2.13837
2.12603
2.11488
2.10561
2.09742
2.09024
3.53792
3.54919
6.25265
5.51767
3.70235
3.53239
2.22636
2.21171
2.19914
2.18879
2.1797
2.17179
3.18936
3.54078
3.65146
6.69745
5.7732
3.19319
2.32627
2.31375
2.30168
2.29138
2.2825
2.27501
3.12264
3.18754
3.53832
3.76315
7.19327
3.13345
3.07485
2.40775
2.40838
2.40216
2.39085
2.37927
2.36951
3.06624
3.11262
3.18554
3.52848
3.85138
3.07011
2.47138
2.50106
2.4944
2.47752
3.06515
3.05744
3.10334
3.1814
3.51423
3.07079
3.18818
2.31772
2.30565
3.08444
3.06814
3.0592
3.04999
3.09341
3.17533
3.15786
3.19265
3.21526
3.0929
3.08364
3.06483
3.0543
3.04297
3.0839
3.13686
3.15951
3.1972
3.21647
3.33977
3.09803
3.09264
3.08252
3.06246
3.04999
3.03663
3.12369
3.13687
3.16015
3.20031
3.22871
3.38683
3.10056
3.09838
3.09282
3.08204
3.06058
3.04624
3.11589
3.1232
3.13646
3.16
3.20217
3.23957
3.09867
3.1008
3.0988
3.0931
3.08183
3.059
3.11151
3.11513
3.12246
3.13572
3.15959
3.20305
3.101
3.09838
3.10097
3.09925
3.09351
3.08169
3.11422
3.11113
3.11437
3.12169
3.13491
3.1592
3.10349
3.10072
3.09828
3.10107
3.09969
3.09389
3.10748
3.11038
3.11453
3.11083
3.11369
3.12092
3.13426
3.10334
3.10044
3.09824
3.10114
3.10011
3.10757
3.11075
3.11467
3.11068
3.11308
3.1203
3.10319
3.10018
3.09823
3.10121
3.10765
3.11109
3.11473
3.11058
3.11252
3.10306
3.09994
3.09822
3.10773
3.11139
3.11475
3.11049
3.10295
3.09973
3.1078
3.11167
3.11478
3.10284
3.10785
3.11193
0.611872
0.921023
2.12092
2.05032
1.83002
1.80103
1.83258
1.36904
1.47457
1.26355
1.80881
1.85003
2.1448
2.1437
2.16543
2.16157
2.10573
2.08037
2.01318
1.95877
1.7448
1.56626
1.91247
1.84331
1.99338
1.9909
1.88166
2.10614
2.10793
2.14101
2.15626
2.16326
2.12635
2.08122
2.09204
2.00125
1.94344
2.13243
2.22598
2.11441
2.36212
2.27294
2.13649
2.07568
4.46957
4.70425
3.32634
2.5499
2.45665
3.17351
3.0223
2.68282
2.64617
2.96516
2.86552
2.80927
2.14185
2.11389
2.12917
2.17202
2.22538
2.21788
2.20872
2.20969
2.26272
2.16366
2.45113
2.39418
2.28201
2.2979
3.96842
3.5352
3.45028
3.98475
3.79616
3.42528
3.28033
3.30997
3.16907
2.62052
2.52746
3.08316
2.9761
2.88837
2.81518
2.74297
2.14564
2.16422
2.19147
2.24989
2.27619
2.34401
2.36883
2.56628
2.41775
2.36463
2.65329
2.48411
2.42299
3.66961
3.53954
3.48914
3.52738
3.44773
3.36964
3.22762
3.17438
3.05138
2.96045
2.87878
2.73931
2.70056
2.23581
2.25172
2.27592
2.3666
2.38527
2.43635
2.47437
2.58768
2.5396
2.80859
2.73293
2.59626
2.54059
3.18402
3.31864
3.32912
3.35972
3.2792
3.20679
3.11485
3.03138
2.8917
2.97758
2.91229
2.33689
2.5518
2.37808
2.3907
2.43926
2.45238
2.5174
2.85224
2.69176
2.73484
2.88258
2.59703
2.70579
2.67988
2.88289
3.12802
3.15298
3.00083
2.96644
3.08545
3.03095
3.19325
3.24013
3.21769
3.00976
2.98404
3.17393
3.02779
3.04245
2.42682
2.61965
2.53567
2.59437
2.47588
2.47897
2.5112
2.74686
2.815
2.86859
2.92059
2.67825
2.75338
2.70906
2.91802
2.97931
3.03651
3.03242
3.09733
3.1443
3.12454
3.06823
3.06561
3.0723
3.05996
3.08177
3.12735
3.05153
3.07591
3.03792
3.07596
3.0769
3.091
3.0734
3.06653
3.07115
2.55998
2.45328
2.52483
2.63819
2.65753
2.53157
2.54424
2.63091
2.94429
2.79785
2.83861
2.67717
2.79819
2.98255
2.96402
3.04148
3.0703
3.0972
3.14035
3.14491
3.20281
3.22699
3.22742
3.19771
3.16937
3.18962
3.14312
3.20316
3.18229
3.1855
3.14433
3.11846
3.10757
3.05704
3.09835
3.10036
3.12571
3.09694
3.07062
3.06113
3.06647
3.06334
3.06715
3.09312
3.23873
2.4497
2.33468
2.41681
2.56394
2.59302
2.67021
2.84043
2.82919
2.86795
3.11049
3.00033
3.00883
3.27072
3.16371
3.14118
3.30516
3.27928
3.36805
3.16552
3.13416
3.16558
3.15387
3.15732
3.08085
3.08245
3.13233
3.10816
3.11376
3.08885
3.06202
3.09258
3.09857
3.0873
3.09074
3.10223
3.37934
3.18471
3.06706
3.02381
3.02726
2.98073
2.77744
3.0249
3.32117
3.09143
3.09108
3.14629
3.13233
3.13893
3.1284
3.13775
3.09342
3.09131
3.12691
3.11502
3.10226
3.09167
3.10296
3.08921
3.54228
3.09771
3.09763
3.09742
3.09847
3.0995
3.10036
3.12713
3.11434
3.12566
3.12349
3.12476
3.09821
3.10538
3.10042
3.11333
3.11553
3.09936
3.10182
3.10021
3.10047
3.09943
3.10025
3.11774
3.11475
3.11618
3.11659
3.1162
3.10234
3.10475
3.10813
3.1097
3.11283
3.11172
3.10185
3.103
3.10118
3.10176
3.11236
3.11224
3.11038
3.10532
3.10964
3.10717
3.11341
3.11208
3.10364
3.10514
3.10733
3.1099
3.10953
)
;

boundaryField
{
    movingWall
    {
        type            zeroGradient;
    }
    fixedWalls
    {
        type            zeroGradient;
    }
    frontAndBack
    {
        type            empty;
    }
    defaultFaces
    {
        type            empty;
    }
}


// ************************************************************************* //
