/*--------------------------------*- C++ -*----------------------------------*\
  =========                 |
  \\      /  F ield         | OpenFOAM: The Open Source CFD Toolbox
   \\    /   O peration     | Website:  https://openfoam.org
    \\  /    A nd           | Version:  8
     \\/     M anipulation  |
\*---------------------------------------------------------------------------*/
FoamFile
{
    version     2.0;
    format      ascii;
    class       volScalarField;
    location    "11000";
    object      k;
}
// * * * * * * * * * * * * * * * * * * * * * * * * * * * * * * * * * * * * * //

dimensions      [0 2 -2 0 0 0 0];

internalField   nonuniform List<scalar> 
4109
(
0.0294932
0.0310435
0.0297415
0.031013
0.0317424
0.0314665
0.0319628
0.0301485
0.0330108
0.0325451
0.0325709
0.0333187
0.0298492
0.031691
0.032409
0.0337109
0.0334961
0.03351
0.0338681
0.0325536
0.0298998
0.0313755
0.0314093
0.0345923
0.0346237
0.0350342
0.0295889
0.0316264
0.0298766
0.0348557
0.0335083
0.0328084
0.0313739
0.031291
0.0322225
0.0351654
0.0350532
0.0361742
0.0318924
0.0298477
0.0315746
0.0317704
0.0302763
0.0355139
0.0341217
0.0954777
0.0479414
0.0334854
0.0329018
0.0312445
0.0322424
0.0358538
0.0366372
0.0379046
0.0336113
0.0317949
0.0293639
0.0318971
0.0323664
0.033144
0.0328779
0.121495
0.0367272
0.035103
0.0344441
0.0416781
0.0870454
0.0337479
0.032768
0.0324855
0.0393814
0.0373379
0.0425474
0.0413715
0.0411864
0.034154
0.0340535
0.0326711
0.0311611
0.0328945
0.0325822
0.0329289
0.0334804
0.0336148
0.0384349
0.0452486
0.100138
0.13104
0.132411
0.0379105
0.0375049
0.0358032
0.0351128
0.0345494
0.0384905
0.0665249
0.0337303
0.0325641
0.0427003
0.0410166
0.0398859
0.0429949
0.043713
0.0432582
0.0434024
0.0352869
0.0347662
0.0339329
0.0321075
0.0341318
0.0388435
0.0333684
0.0338816
0.0341181
0.0346739
0.138198
0.0527465
0.0664462
0.0893387
0.140017
0.137567
0.0432873
0.0397092
0.0385823
0.036838
0.0361073
0.0354207
0.0344097
0.0669183
0.0344508
0.033811
0.043123
0.0417124
0.0448116
0.0440366
0.0455689
0.0443332
0.035968
0.0356529
0.0355728
0.0337215
0.0348148
0.0399905
0.0339472
0.0345554
0.0350242
0.0352689
0.124858
0.0734871
0.14077
0.0934733
0.143825
0.0504022
0.0405643
0.0394826
0.0376553
0.0368704
0.0361798
0.0354499
0.0343818
0.0614526
0.0331607
0.0426388
0.0412535
0.0456743
0.0437598
0.046447
0.0468461
0.0476455
0.0371339
0.0366139
0.0363304
0.0345556
0.0358001
0.0412121
0.0347742
0.0354559
0.0356977
0.0363703
0.0857432
0.156849
0.0884557
0.147528
0.147751
0.0511654
0.038783
0.0397309
0.0378945
0.0361476
0.0370805
0.0356176
0.0672984
0.034035
0.0409557
0.0420216
0.0451887
0.0433404
0.0464316
0.0480914
0.0477229
0.0507254
0.0379034
0.0376177
0.0376496
0.0361748
0.0360476
0.0414331
0.035504
0.0361264
0.0367111
0.0370907
0.0883035
0.158453
0.154117
0.0931411
0.157209
0.0507726
0.0388934
0.0400826
0.0375247
0.0364925
0.0688123
0.0349182
0.0411787
0.0424252
0.0445454
0.0436488
0.0459791
0.0480246
0.0491898
0.051137
0.053491
0.0391801
0.0385743
0.038398
0.0372316
0.0369125
0.0424617
0.0370112
0.0362537
0.0400884
0.0375824
0.0382753
0.0848971
0.166433
0.0967849
0.161533
0.163419
0.0516263
0.0392032
0.0399782
0.0378969
0.0722166
0.035353
0.0415114
0.0424203
0.0449574
0.0439933
0.0463103
0.0473383
0.0495491
0.0514384
0.0529531
0.0570317
0.0401947
0.0393394
0.0387302
0.0410629
0.0372225
0.042883
0.0374982
0.0414014
0.0391362
0.0387238
0.17359
0.0846222
0.168889
0.100556
0.173547
0.0522193
0.178178
0.039002
0.040352
0.0738786
0.0361576
0.0414868
0.0426747
0.0450578
0.0440028
0.0466196
0.0476818
0.0489256
0.0514043
0.0533722
0.0562288
0.0566062
0.0607034
0.0393253
0.0407661
0.0390696
0.0422313
0.042458
0.0379197
0.0437162
0.0391343
0.0404115
0.0397641
0.0849758
0.181508
0.175594
0.0991202
0.179863
0.0529398
0.192185
0.184677
0.201925
0.165711
0.185362
0.156429
0.0883274
0.0370704
0.0403151
0.0423386
0.0432156
0.0439437
0.0454345
0.046757
0.0477076
0.0491797
0.0578432
0.0504672
0.0532129
0.0559856
0.0613238
0.0648614
0.0632742
0.0693733
0.0416366
0.0411542
0.0434469
0.0438745
0.0414032
0.039233
0.0452228
0.0398999
0.0409902
0.0874943
0.194268
0.181027
0.0528679
0.291805
0.259642
0.201859
0.172462
0.195364
0.221414
0.0754763
0.0759825
0.0811417
0.159978
0.149359
0.151417
0.148046
0.159317
0.150555
0.0387211
0.0452336
0.0452828
0.0459878
0.0606697
0.0470052
0.0479489
0.0493294
0.0507211
0.0577031
0.0522391
0.0552907
0.0651246
0.0617056
0.0681427
0.0678822
0.0765104
0.0808355
0.0429086
0.0436708
0.0450706
0.0450186
0.0427835
0.0421231
0.0402972
0.044921
0.0414816
0.0915177
0.2184
0.302446
0.258241
0.177273
0.194673
0.221846
0.0795141
0.0814118
0.0869646
0.0826626
0.085638
0.132774
0.139184
0.139541
0.147218
0.160072
0.240379
0.119257
0.044124
0.0474636
0.0471607
0.0600608
0.0611583
0.0491738
0.0491162
0.0506093
0.0523905
0.05714
0.0540081
0.0657927
0.0637523
0.0692208
0.0721347
0.0768433
0.0786503
0.0456585
0.0449447
0.0423631
0.0475729
0.0465223
0.0439286
0.0434544
0.0497167
0.0429093
0.041791
0.0498506
0.0973084
0.294377
0.324317
0.260233
0.176716
0.19758
0.225335
0.0820357
0.0895074
0.0979474
0.087682
0.0919248
0.122685
0.10927
0.0871524
0.0904033
0.129305
0.137202
0.147586
0.158635
0.257659
0.211401
0.0650488
0.0491768
0.0496749
0.0593154
0.0612047
0.0502859
0.0506703
0.0523627
0.0541236
0.0560351
0.0663927
0.0639626
0.0696927
0.0728347
0.074904
0.0782349
0.0475254
0.0496679
0.0476117
0.0438727
0.043934
0.0454458
0.0467594
0.0447534
0.0509279
0.0485202
0.169921
0.222058
0.0434372
0.0412715
0.304913
0.257193
0.255513
0.326934
0.265677
0.17739
0.199507
0.230036
0.0861815
0.0808368
0.0934813
0.0994576
0.0972087
0.107371
0.118065
0.0920539
0.0961632
0.127289
0.134558
0.147115
0.162411
0.318254
0.273412
0.31956
0.0649522
0.0524502
0.0511497
0.0581017
0.0604347
0.0523506
0.0522429
0.0538896
0.0560982
0.0628431
0.0655458
0.0683769
0.0715453
0.07466
0.0773511
0.0791724
0.05073
0.0507087
0.0453181
0.0450457
0.0462648
0.0476403
0.0493121
0.0529671
0.0500676
0.0451154
0.0510827
0.0557031
0.31422
0.260681
0.243283
0.192409
0.191702
0.331402
0.261553
0.17987
0.190323
0.209855
0.0906919
0.0845432
0.0826235
0.117015
0.102104
0.106039
0.0975871
0.101434
0.125649
0.133304
0.149907
0.164021
0.0870309
0.350393
0.329253
0.352854
0.0777321
0.0551251
0.0538544
0.0581752
0.0604453
0.0540303
0.0539129
0.0560533
0.0628485
0.0654781
0.0682847
0.0713624
0.0739964
0.0759228
0.0790993
0.0798324
0.0532129
0.054194
0.0469656
0.046971
0.0482613
0.0496738
0.0508926
0.0548005
0.0517955
0.0508241
0.0469149
0.0479007
0.311106
0.166955
0.230566
0.222496
0.192826
0.334703
0.262779
0.175032
0.195203
0.215467
0.241861
0.0956993
0.0839853
0.0893884
0.0840318
0.103494
0.114226
0.108682
0.12574
0.138973
0.152621
0.160453
0.0879233
0.386877
0.371447
0.405555
0.0809137
0.0590819
0.0559646
0.0604227
0.0579751
0.0560393
0.056197
0.062665
0.0653808
0.0709957
0.0679701
0.0733245
0.0758573
0.0759436
0.0787372
0.082152
0.056871
0.056096
0.0573878
0.0489199
0.04873
0.0508966
0.0524993
0.0535602
0.0530926
0.0487641
0.0504333
0.316673
0.255876
0.144123
0.150031
0.205882
0.197877
0.174268
0.271596
0.331827
0.178324
0.194489
0.211276
0.236283
0.101053
0.0855576
0.0936483
0.0868779
0.0896802
0.110237
0.114315
0.106576
0.127834
0.140724
0.150769
0.164765
0.114243
0.425763
0.426234
0.43978
0.0927247
0.0628344
0.058069
0.0606818
0.0582862
0.0580179
0.0632399
0.0653627
0.0704024
0.0681896
0.0741608
0.0760721
0.0781834
0.0808135
0.083856
0.060124
0.0598697
0.0596107
0.0555849
0.0509802
0.0510868
0.0525645
0.0534746
0.0544421
0.0507345
0.0545752
0.332287
0.280528
0.242757
0.220205
0.125446
0.133328
0.147221
0.189091
0.178081
0.162938
0.112964
0.273096
0.326601
0.331985
0.177865
0.194801
0.225571
0.211583
0.0993951
0.0881184
0.0924775
0.0893789
0.112206
0.119609
0.105151
0.165273
0.130088
0.137725
0.152394
0.113143
0.47313
0.482266
0.505328
0.0599297
0.0994954
0.0645949
0.0611477
0.0607649
0.0666951
0.0651655
0.0716397
0.0720622
0.0693426
0.0750062
0.07838
0.0814367
0.0646472
0.0625503
0.0620266
0.0576443
0.0568252
0.0527315
0.0522501
0.0541413
0.055971
0.0525817
0.0562078
0.0689927
0.0741641
0.276864
0.245261
0.214982
0.196168
0.120339
0.135278
0.150085
0.170769
0.160963
0.108479
0.0999263
0.0926451
0.0825023
0.0790683
0.316712
0.265745
0.316411
0.271536
0.166291
0.179113
0.192034
0.220965
0.0985759
0.0905874
0.093406
0.120369
0.112729
0.105503
0.102385
0.152049
0.151899
0.129711
0.141208
0.136834
0.561939
0.529994
0.526454
0.066685
0.101137
0.063177
0.0643485
0.0721648
0.0683714
0.0746815
0.0773105
0.0802705
0.0648863
0.0643759
0.059975
0.0586213
0.0573938
0.0549059
0.0544396
0.0561992
0.0607771
0.0546782
0.0761813
0.0696918
0.0729739
0.240222
0.219898
0.193322
0.175527
0.120687
0.137632
0.147274
0.15429
0.11371
0.0996839
0.102293
0.0776867
0.0909418
0.0802071
0.0844412
0.270056
0.251219
0.237679
0.216712
0.160549
0.174382
0.199627
0.149446
0.0968162
0.0934655
0.117314
0.108098
0.113227
0.106384
0.100771
0.142453
0.14388
0.130359
0.109732
0.615721
0.595884
0.585978
0.0834954
0.105995
0.0673844
0.0611316
0.0717542
0.075589
0.0788886
0.0673075
0.0623843
0.0612879
0.0601526
0.0581436
0.0566673
0.0559436
0.0586209
0.0562867
0.0741112
0.0703321
0.211557
0.215162
0.197772
0.17387
0.157331
0.127472
0.135488
0.140605
0.116536
0.110487
0.102395
0.078811
0.0817585
0.0956394
0.0849412
0.0893226
0.224162
0.214856
0.211726
0.196732
0.140615
0.162656
0.171076
0.151435
0.194424
0.0963315
0.12077
0.11463
0.111044
0.10422
0.0994698
0.123612
0.130032
0.131213
0.115769
0.730892
0.687023
0.732776
0.133464
0.0708375
0.079074
0.0747133
0.0781511
0.0650864
0.063498
0.0619533
0.0605187
0.0588308
0.0584205
0.0597684
0.0587529
0.0741441
0.0679301
0.194005
0.195429
0.176158
0.155573
0.1426
0.125506
0.129216
0.116374
0.108725
0.101897
0.0777907
0.0812213
0.0959921
0.0856277
0.0902391
0.196333
0.189997
0.172801
0.126195
0.132678
0.142127
0.150054
0.175249
0.112162
0.107061
0.101981
0.117577
0.11505
0.122635
0.126148
0.85546
1.17253
0.32134
0.0750221
0.0880368
0.0781141
0.0665036
0.0650156
0.0628517
0.0610205
0.0603374
0.0622009
0.0711032
0.0691893
0.175154
0.173412
0.156032
0.141084
0.130885
0.119481
0.111175
0.103882
0.0975483
0.0744834
0.0782483
0.0918788
0.0823183
0.0868735
0.171672
0.173264
0.15635
0.127904
0.133963
0.140934
0.12328
0.155992
0.108651
0.104318
0.112294
0.113359
0.118378
0.198938
1.66892
1.61402
0.579581
0.0801094
0.122177
0.0672455
0.0655821
0.0627098
0.0633864
0.0690082
0.0726282
0.0706923
0.156781
0.156541
0.14143
0.129762
0.12095
0.112623
0.105219
0.0989907
0.0758741
0.079843
0.0932561
0.0837555
0.0884257
0.154182
0.154669
0.142085
0.125249
0.129737
0.118804
0.141626
0.106208
0.10896
0.109898
0.112766
4.05697
0.331428
2.3327
2.47956
1.16917
4.49712
0.0682296
0.0658028
0.0670721
0.0668071
0.077219
0.0734344
0.0713263
0.139985
0.140841
0.130337
0.120652
0.112196
0.10549
0.0990715
0.0773421
0.0806352
0.0940963
0.08502
0.088967
0.13751
0.137775
0.13022
0.119148
0.112973
0.127975
0.130351
3.27195
3.60158
0.635986
3.59788
3.58061
4.88546
3.96702
6.43335
0.0691853
0.0659337
0.0704061
0.0706078
0.0943311
0.0744883
0.0709336
0.13114
0.130744
0.120701
0.112466
0.105464
0.0995873
0.0780783
0.0817625
0.094423
0.089892
0.0856633
0.129611
0.122246
0.113346
0.120803
0.12326
0.122457
2.21287
2.86075
3.18079
1.2076
4.51384
3.48146
6.20023
6.25901
0.070938
0.0705043
0.0754156
0.134949
0.075358
0.07157
0.11844
0.118977
0.11166
0.104913
0.0994222
0.0779733
0.0825347
0.094641
0.0904024
0.0862713
0.122343
0.115437
0.116252
0.11843
0.116892
0.116214
1.93758
1.80985
2.49669
2.78422
3.44196
5.86322
4.10787
3.02875
5.86392
6.05944
0.0731589
0.0746837
0.0803156
0.0744931
0.0754619
0.0775515
0.114041
0.106965
0.102066
0.0968117
0.0814784
0.0818164
0.093736
0.0890156
0.0867671
0.115173
0.112629
0.113614
0.1119
0.110958
1.52375
1.47778
2.16409
2.39525
6.31181
2.98054
5.59544
5.4221
3.68321
2.58977
5.49534
5.85215
0.0749058
0.0774227
0.0775025
0.0788067
0.0819799
0.109998
0.105375
0.101391
0.0970384
0.0836363
0.0848372
0.093675
0.0902976
0.0875765
0.109164
0.10728
0.105298
6.14583
1.1938
1.20122
1.84532
1.98304
5.89624
2.58176
5.25553
5.15528
4.96548
3.23834
2.13131
5.09654
5.64061
0.0772134
0.0780768
0.0802055
0.0816228
0.104231
0.102421
0.0998779
0.096754
0.0841732
0.0862861
0.0938318
0.0910667
0.0885804
6.73215
5.57195
0.934083
0.961419
1.51152
1.46824
5.43234
2.22678
5.10377
4.80244
4.70494
4.49127
2.74411
1.57435
4.65447
5.42223
7.71435
6.1943
5.00217
0.725829
0.737721
1.09831
0.59901
4.94367
1.88986
4.96102
4.68348
4.35597
4.24512
3.98886
2.11205
0.670439
4.12972
5.19129
8.42318
7.3123
5.61296
4.43886
0.549013
0.491855
0.398236
4.42946
1.55531
3.49753
4.65097
4.26085
3.91303
3.76516
3.42524
1.04659
3.41833
9.7794
7.9443
6.84041
4.99979
3.87348
0.367081
0.127306
3.85915
1.36415
2.74139
3.05163
4.32781
3.83817
3.46217
3.23639
2.71297
2.17256
11.2165
8.98599
7.48803
6.29724
4.36021
3.27755
0.0832709
3.12241
1.42687
2.3776
2.62996
3.98906
3.40473
2.97487
2.57826
1.51235
11.8433
11.1958
8.06508
7.0231
5.65833
3.67899
2.56259
1.71946
1.30819
1.27814
2.05783
2.2193
3.62345
2.93465
2.37905
1.48405
12.121
11.5253
10.9294
7.07371
6.5163
4.88712
2.88939
1.3572
1.48532
1.1987
1.14332
1.76395
1.80847
3.20549
2.35876
1.39292
8.18417
12.1266
10.9387
10.3771
6.03227
5.9547
3.93753
1.65687
1.59758
1.38047
1.09209
1.01807
1.48114
1.38862
2.66757
1.41472
6.9194
8.06579
11.8607
10.0694
9.52118
5.00174
5.17879
2.56338
1.60918
1.48252
1.27299
0.984479
0.895859
1.19436
0.949041
1.7608
6.28638
6.62036
7.72431
11.3887
8.97504
8.30289
4.25399
3.46477
1.51208
1.49313
1.36502
1.15978
0.87048
0.763156
0.869465
0.468751
6.29998
6.10184
6.19804
7.22082
10.6531
7.64084
6.74933
3.36308
1.33093
1.40527
1.37476
1.24211
1.03574
0.740104
0.58732
0.403838
6.84914
6.09831
5.78636
5.7032
6.61497
9.52161
6.08615
5.9003
1.42722
1.21902
1.29607
1.25104
1.10838
0.889694
0.566477
0.262901
8.0735
6.54256
5.77228
5.38161
5.15264
5.93059
7.62523
3.77092
2.64718
1.27943
1.11041
1.18127
1.11654
0.952086
0.691079
0.250271
12.0238
7.94344
6.12241
5.36189
4.90302
4.53572
5.12247
5.11905
3.54046
2.30464
1.14511
1.00098
1.05553
0.959437
0.741512
0.334358
11.7539
12.0069
7.60019
5.63246
4.87978
4.34263
3.80729
4.02948
4.9559
3.08103
1.99869
1.0201
0.885028
0.907592
0.747938
0.371151
11.0527
11.4505
11.715
7.09744
5.08727
4.31674
3.65688
2.87729
5.1399
4.64477
2.64865
1.71436
0.89768
0.752538
0.706825
0.377034
9.81867
11.0591
10.9209
11.1485
6.48227
4.47701
3.62828
2.76473
5.23698
4.7176
4.32295
2.23233
1.43931
0.764147
0.576796
0.348472
8.41587
9.06094
10.8567
10.1762
10.3381
5.7454
3.75117
2.72824
5.56614
4.78099
4.2923
3.98435
1.81861
1.15986
0.587332
0.259319
7.77234
7.95695
8.19055
10.4129
9.25376
9.19854
4.82559
2.80282
5.85969
5.12663
4.33438
3.8674
3.6187
1.39769
0.842431
0.262801
6.75355
7.36479
7.53212
7.30673
9.77134
8.26387
7.6996
3.52013
6.65226
6.26591
5.42433
4.67825
3.89335
3.43163
3.19922
0.951746
0.383046
6.13632
6.22203
6.89427
7.10635
6.4205
8.95021
7.24462
6.06884
5.08245
6.4426
5.9383
4.97205
4.22038
3.44426
2.9575
2.65536
0.456041
6.24906
5.5615
5.64287
6.36301
6.6453
5.52967
7.92812
5.78745
3.40884
4.53473
4.68591
6.22505
5.56946
4.49945
3.74163
2.95744
2.37276
1.72601
5.84686
4.99023
5.02486
5.73112
6.10756
4.80388
6.4491
2.94444
2.06768
4.31036
4.02611
4.25861
6.00337
5.16704
3.99701
3.21261
2.36047
1.40384
2.44272
3.56276
5.39528
4.42591
4.3784
4.96408
5.31214
3.56459
2.53731
1.63368
3.82452
3.54569
3.81501
5.778
4.71743
3.43175
2.55238
1.35594
1.9866
3.13525
4.9157
3.86082
3.69473
4.01692
3.51927
2.18501
1.28418
3.37748
3.09094
3.34979
5.54645
4.18036
2.71266
1.43972
1.61982
2.74884
4.40961
3.26615
2.90299
2.63982
1.85616
1.00832
2.95772
2.64624
2.83221
5.30105
3.4465
1.48573
1.31477
2.39046
3.84474
2.55441
1.67982
1.55415
0.786118
2.54659
2.17948
2.1683
2.14593
1.05079
2.04464
3.11444
1.3592
1.36814
0.596004
2.11091
1.60587
1.04415
0.805843
1.6813
1.73095
0.399717
1.568
0.662572
0.539191
1.23211
0.0958874
0.646687
0.148618
0.474821
0.0862871
0.0843409
0.0856279
0.0856374
0.087085
0.0868569
0.0875062
0.0875384
0.0882495
0.082738
0.083842
0.0842683
0.085468
0.0857856
0.086933
0.0875458
0.0918808
0.0933116
0.0946487
0.0968892
0.0983361
0.0884446
0.0892436
0.0882733
0.0884322
0.0887421
0.0883793
0.0896063
0.089337
0.0903769
0.101023
0.10218
0.0814159
0.0825202
0.0831421
0.084232
0.0848572
0.0858043
0.0867987
0.0878894
0.0888484
0.0898276
0.09093
0.0923007
0.0941018
0.0955564
0.0986371
0.100128
0.105622
0.10637
0.0902313
0.0911043
0.0921594
0.0931221
0.0944976
0.0959426
0.0983171
0.089636
0.0900937
0.0896196
0.0896329
0.090518
0.0898748
0.0918757
0.0913561
0.0927015
0.0981477
0.0999604
0.110613
0.112288
0.104861
0.104614
0.109688
0.0804106
0.0814371
0.0823016
0.083311
0.0842606
0.0852594
0.0864613
0.0873954
0.0891232
0.0902094
0.0916738
0.0929579
0.0969545
0.0983669
0.101498
0.10263
0.107161
0.108419
0.113562
0.115706
0.122068
0.122191
0.129164
0.0910776
0.091802
0.0927627
0.0937812
0.0952514
0.0908134
0.0910862
0.0911648
0.090853
0.0924218
0.0916466
0.09512
0.094064
0.0933457
0.0956636
0.0993146
0.0995453
0.104587
0.106212
0.125785
0.11378
0.121446
0.110556
0.113455
0.0800101
0.0809407
0.0820849
0.0830795
0.084342
0.0852568
0.0867343
0.0876596
0.0892593
0.0902256
0.0924623
0.0945963
0.102688
0.0999038
0.106161
0.108646
0.113113
0.1146
0.119476
0.129186
0.134854
0.135699
0.149407
0.152033
0.145723
0.15425
0.154842
0.196003
0.0920558
0.0928142
0.0936348
0.0945882
0.097469
0.096225
0.0920966
0.0921332
0.092779
0.0923017
0.0952382
0.0942256
0.0934811
0.0996736
0.0983496
0.0959516
0.0983944
0.100291
0.248667
0.214705
0.307536
0.104699
0.10501
0.110527
0.112761
0.127357
0.129476
0.165292
0.144565
0.121876
0.12794
0.080733
0.0813124
0.0829288
0.0835318
0.0853235
0.0858907
0.0878773
0.0887015
0.0918338
0.0910798
0.0953436
0.0967706
0.101617
0.103959
0.113445
0.11164
0.120866
0.129696
0.136663
0.137441
0.149284
0.714179
0.702216
0.493747
0.16227
0.171093
0.18637
0.19267
0.202504
0.217798
0.218419
0.491327
0.292902
6.43658
7.00283
6.85399
6.54019
7.16292
7.18486
6.956
6.58281
0.0931961
0.0935577
0.0945591
0.095494
0.0971855
0.0961145
0.093479
0.0932972
0.0952796
0.0944605
0.0939421
0.1019
0.100516
0.0992004
0.0980618
0.0967064
0.099634
0.105658
0.10157
0.104957
6.03552
5.06808
1.86198
1.3191
0.772663
0.174777
0.249548
0.305592
0.564845
0.112772
0.113123
0.114112
0.113666
0.125745
0.12785
0.139686
0.136077
0.164007
6.22891
6.9197
4.5436
7.14342
7.20507
7.18967
5.44517
6.07877
6.16743
7.17371
0.0869498
0.0845373
0.088675
0.0873345
0.091068
0.0900596
0.0936759
0.0935069
0.096657
0.096423
0.100458
0.100433
0.108164
0.11115
0.116735
0.115743
0.121441
0.146893
0.124638
0.159741
0.21116
0.20352
0.247662
0.248819
0.244
1.27996
1.78623
3.41998
2.48501
1.29576
0.996574
0.356834
0.394923
0.499086
0.505276
1.0215
0.596215
0.58012
3.8867
6.05853
4.96657
5.26929
6.15812
6.68959
6.9222
6.91536
4.97669
4.92457
7.12807
7.0821
5.57532
5.79473
6.38236
7.01921
6.59952
6.96433
0.0944608
0.0946745
0.0955556
0.0968523
0.0972286
0.0962144
0.0957139
0.0950039
0.0946379
0.103987
0.102515
0.101115
0.0999382
0.0988843
0.0978917
0.0975096
0.100507
0.100884
0.104796
0.105295
0.109741
0.104603
2.6831
4.52683
3.52992
5.91343
4.61552
1.6761
2.70575
1.43454
0.753049
0.113192
0.609674
0.199872
0.348363
0.256011
0.123383
0.120094
0.129277
0.124204
0.132169
0.130871
0.149105
0.143178
0.200207
6.24599
7.08716
5.94619
4.28938
4.70182
3.65261
7.32282
7.42672
7.24657
5.99575
4.52799
5.61479
0.188896
0.103224
2.11127
0.646622
0.135794
0.105409
0.124312
0.105222
0.119371
0.104654
0.11786
0.112424
0.109883
0.121451
0.120483
0.143052
0.176017
0.164997
0.20135
0.283336
0.252556
0.336718
0.661823
0.377535
0.40758
0.903239
1.02978
0.552189
0.485842
0.656003
0.633722
0.798863
0.79968
1.92842
2.54671
3.68272
2.97805
2.08552
1.51572
1.16543
1.16973
1.75761
1.31111
1.42962
4.93837
4.32181
5.15458
6.16923
5.86761
6.84933
6.64546
7.10476
7.01116
7.05364
5.22035
5.77707
6.98918
7.00332
6.84493
6.81343
6.51179
0.0976851
0.0956965
0.0957572
0.0966031
0.0971998
0.0964497
0.0961672
0.0983374
0.106113
0.104606
0.103011
0.101721
0.100582
0.0994377
0.0988004
0.0978642
0.108095
0.10574
0.107976
0.110326
0.108803
0.110229
0.101443
0.101335
0.101779
0.103439
0.114063
0.108318
0.109755
0.105475
4.62886
4.0985
3.03542
0.983599
2.53491
1.74104
0.119363
0.133561
0.131893
1.09816
0.26272
0.561261
0.364054
0.143649
0.139848
0.152571
0.148624
0.17597
0.165073
0.276759
4.41568
6.61331
7.22219
6.23279
5.30773
7.45503
3.35738
3.90571
2.72638
7.66169
7.44919
6.66621
5.50181
4.00017
4.74408
4.73976
1.19322
0.340616
4.56669
3.58415
0.686586
0.335047
0.521667
0.254507
0.40159
0.216299
0.342386
0.182639
0.247597
0.446229
0.780187
0.554993
0.962969
0.620989
0.758402
1.34634
1.67204
1.83008
1.18536
1.19745
1.86094
2.09384
1.24465
1.37539
1.67305
1.58408
1.9598
1.67448
3.94916
2.76624
3.31118
3.14322
2.68373
2.53679
2.90881
2.19016
2.70132
5.38853
4.5244
6.74373
6.05938
6.3683
7.07457
6.97245
6.92148
7.00105
6.52592
6.6137
0.10997
0.108458
0.0970661
0.0982443
0.097538
0.0969996
0.0970138
0.0985748
0.0996998
0.104782
0.102922
0.102217
0.10075
0.100236
0.0991504
0.098847
0.0980958
0.106734
0.104837
0.105984
0.107102
0.105414
0.106762
0.101111
0.101728
0.103025
0.105645
0.120499
0.113647
0.11437
0.10888
1.79889
2.65222
3.52789
0.129609
0.142693
0.141333
0.163827
0.159401
0.784092
1.8391
0.360371
0.709522
0.199221
0.182573
0.273953
0.235996
0.369558
3.59591
5.12874
4.7628
6.87843
6.985
7.36278
7.79336
7.72002
2.65542
3.60349
7.40885
6.47178
5.72696
4.0521
4.76363
4.77079
2.0862
4.79482
5.11642
5.63872
3.79041
2.39501
5.7865
6.27722
3.38032
1.7373
2.62092
1.23125
2.01868
1.02311
1.35997
1.58026
1.20691
2.18788
1.79528
1.73117
1.70391
1.82588
2.77662
2.87108
2.99923
3.31612
2.53553
2.37398
3.40265
3.59109
2.5747
2.82584
3.30473
3.11564
3.49693
4.70733
4.18916
4.54816
3.71775
4.26367
4.2317
3.99016
4.4108
6.37113
5.70632
6.97037
6.81793
6.91179
6.92607
6.3525
6.45673
0.111828
0.109318
0.107507
0.106011
0.0985781
0.09843
0.0987409
0.0995356
0.100674
0.103867
0.102439
0.101764
0.100651
0.100239
0.0994196
0.099465
0.103702
0.104573
0.103088
0.104272
0.103446
0.104478
0.102066
0.102172
0.10401
0.10984
0.105726
0.102604
0.130521
0.121553
0.122601
0.11545
0.138661
3.15769
2.29761
0.15498
0.151622
0.184979
0.179537
0.263815
0.312856
0.249246
0.791002
2.07704
0.956455
0.498981
0.416921
0.86318
5.07829
4.23281
7.38335
6.75899
7.96393
7.84981
7.56614
7.28916
6.88376
6.53815
0.210446
0.705307
4.68044
5.55243
1.28228
3.89459
5.77814
5.47015
6.30828
6.05835
5.52899
6.20878
5.92863
5.31242
5.37359
3.55661
4.29
3.29637
2.92018
2.89794
4.23726
3.34035
4.18598
3.51532
3.69382
4.28969
4.65837
4.60116
4.71093
4.25145
4.11757
3.76096
4.91987
5.09262
4.25959
4.44556
5.11537
5.01062
5.81491
6.07989
5.63469
5.50604
5.80984
5.48543
5.69683
6.82107
6.70125
6.6838
6.72477
6.07309
6.17643
0.088297
0.109308
0.112428
0.111046
0.109207
0.106993
0.105569
0.104043
0.0996432
0.0998264
0.100167
0.100278
0.102637
0.102369
0.101657
0.10091
0.10042
0.100059
0.101263
0.102194
0.101461
0.102485
0.102115
0.103026
0.10225
0.10626
0.107075
0.116237
0.10518
0.106736
0.142608
0.126329
0.130072
0.117111
0.159502
0.186511
0.168544
4.47229
2.7944
0.249543
0.210367
0.490342
0.408365
1.21279
1.04676
0.884321
2.32926
3.05959
1.65894
7.34214
6.22769
8.09639
8.21279
7.95824
7.5638
7.1053
6.74706
0.147931
0.45295
4.1087
6.35632
0.843982
2.38492
6.3368
6.15558
5.94285
6.54572
6.072
5.58292
6.94263
6.23697
6.87152
6.45786
6.04479
6.03679
5.6405
4.70217
4.75376
5.93695
5.41729
5.16852
5.39487
5.6114
5.49978
5.75667
5.68204
5.63643
5.58249
5.88752
5.13208
5.41439
5.92315
5.91099
5.63864
5.73426
6.03625
6.07628
6.29379
6.22851
6.6364
6.40263
6.38128
6.462
6.51021
5.76751
5.92046
0.0812908
0.0851353
0.0894905
0.108486
0.111028
0.110167
0.108877
0.108317
0.106996
0.105156
0.102738
0.104171
0.107606
0.108723
0.10144
0.100385
0.0997187
0.0998974
0.100681
0.0999316
0.0998272
0.100272
0.100896
0.100628
0.101575
0.101466
0.102139
0.10306
0.105526
0.108898
0.114504
0.117227
0.110764
0.13905
0.163116
0.125562
0.142398
0.177481
0.231497
0.200759
0.251364
0.390076
0.285299
6.40979
5.35246
1.11844
0.818047
2.52831
1.9732
4.38718
5.80196
3.95224
8.41273
8.3647
8.50082
8.02527
7.70578
7.19503
0.132901
0.319987
3.27315
6.21661
0.558875
1.58595
6.0994
6.91302
5.33413
5.50435
6.67881
5.91881
6.84432
6.61165
5.25083
5.76541
6.50701
6.38555
6.50631
6.22894
6.43506
5.7958
5.99361
6.12444
6.12129
5.87719
5.92089
5.76596
5.79625
5.7598
5.65388
5.70013
5.57788
5.424
5.41724
5.94674
5.93586
5.9674
5.85143
6.00722
5.95819
5.98509
5.86745
5.99553
6.23295
6.29582
6.00691
5.5854
5.75088
0.0798495
0.0815217
0.083614
0.0882646
0.0916316
0.107625
0.107288
0.106747
0.105892
0.105941
0.101945
0.103819
0.103084
0.104861
0.105327
0.105129
0.104386
0.105593
0.103394
0.103374
0.101401
0.101474
0.10349
0.100557
0.100018
0.100393
0.100161
0.101775
0.10029
0.100535
0.100847
0.101112
0.101415
0.101964
0.102342
0.105695
0.111411
0.107685
0.115539
0.124435
0.122116
0.130395
0.158403
0.182763
0.142671
0.161728
0.211432
0.277737
0.678995
0.613461
0.483551
0.913717
1.83665
1.79509
8.61284
7.78427
4.25717
4.42703
6.75096
7.91871
6.74913
9.19028
8.70944
8.47313
8.03771
0.125525
0.244957
2.4803
5.11487
0.386005
1.08104
5.20525
7.04073
5.64772
5.15748
6.79142
6.34764
5.66371
5.30653
4.96192
4.94019
6.0105
6.12604
5.20826
5.65339
5.40157
5.83874
5.75955
5.79505
5.78924
5.42193
5.45112
5.01487
5.00208
4.8922
5.17025
4.77352
4.62991
4.06487
3.6997
4.36677
4.45218
5.39125
5.81388
5.81705
5.30362
5.40254
5.45381
5.40809
5.04289
5.4775
0.105009
0.0799023
0.0806994
0.0819043
0.083911
0.0863004
0.0906013
0.0941595
0.080947
0.0809734
0.0825055
0.0822592
0.0844164
0.0837404
0.0994837
0.0998616
0.0976155
0.0980873
0.0956139
0.0962184
0.0934579
0.0942583
0.0866418
0.0856733
0.088993
0.0876982
0.0912492
0.0921053
0.0898989
0.104495
0.103983
0.103446
0.103806
0.102818
0.102497
0.103224
0.102315
0.102511
0.101934
0.103083
0.100439
0.100736
0.0985459
0.0988951
0.102414
0.100983
0.10222
0.100842
0.101599
0.101809
0.101608
0.101806
0.102009
0.102694
0.103011
0.103095
0.102794
0.103465
0.109279
0.105128
0.118756
0.112471
0.12374
0.137622
0.132885
0.148705
0.186467
0.235074
0.167992
0.200909
0.29178
0.635662
3.16252
2.39633
3.24058
1.46911
3.15511
5.22817
6.03331
9.54408
9.42295
8.36571
9.49304
8.55124
9.65666
8.84454
0.118754
0.195591
4.60855
1.71774
2.7647
0.285237
0.752196
6.18866
6.87954
5.79487
5.20481
6.58351
6.13326
6.62731
4.77328
4.68338
4.68904
5.27865
5.18844
4.42674
4.66452
4.68003
4.4298
4.85235
4.99537
4.5355
4.47189
4.07643
4.01889
3.53986
3.60963
3.83256
2.86458
2.87769
2.57353
2.58388
3.31451
4.85865
4.73327
3.61424
4.18011
4.02311
0.105144
0.0928662
0.0964415
0.0817879
0.0827017
0.0843165
0.0865915
0.0892338
0.0826021
0.0829244
0.0837877
0.0838494
0.085258
0.0851773
0.0966906
0.0972924
0.0948326
0.0956538
0.0928284
0.0938451
0.090728
0.0920258
0.087042
0.0866922
0.0887903
0.090121
0.0883483
0.102436
0.101959
0.101719
0.102487
0.102299
0.100005
0.100502
0.100096
0.10115
0.0982451
0.0987095
0.0964144
0.0969364
0.102125
0.102778
0.102457
0.104147
0.103579
0.103976
0.104324
0.103831
0.104637
0.105737
0.104367
0.104614
0.104146
0.112434
0.107893
0.108357
0.126963
0.117317
0.133982
0.15665
0.151071
0.177515
0.208728
0.422874
0.204734
0.275222
0.616737
1.99383
6.18905
6.92897
6.0975
7.357
3.97735
6.84227
8.50943
9.46694
10.4534
10.1624
10.2588
0.11628
0.145993
0.200965
2.92367
4.90794
1.11643
2.17704
0.444519
5.46932
6.40806
5.35435
4.77195
5.8838
5.50215
6.33785
6.47735
6.05869
5.81062
4.21265
4.36547
4.39347
4.28832
3.94381
4.01383
3.92849
3.81744
3.963
3.98701
3.62797
3.6015
3.11161
3.19179
2.53072
2.64748
2.09506
2.14648
1.908
1.82301
3.2926
1.83758
2.80833
4.94079
0.0960334
0.101901
0.0893567
0.0931029
0.0839006
0.0852509
0.0871807
0.0845427
0.0849129
0.0854584
0.0855417
0.0866577
0.0866524
0.0947541
0.0953831
0.0931135
0.0938997
0.0913908
0.092277
0.0897606
0.090807
0.0882036
0.0892997
0.0879209
0.10093
0.100875
0.100874
0.100672
0.0982254
0.0990549
0.0987759
0.100148
0.0965681
0.0972837
0.0949501
0.095669
0.102736
0.102124
0.104913
0.10395
0.109269
0.107568
0.11034
0.109461
0.106666
0.107696
0.11062
0.108391
0.106326
0.112139
0.107601
0.107719
0.121208
0.120595
0.139412
0.137144
0.174872
0.171393
0.232815
0.197647
0.317336
0.728724
0.261454
0.399771
1.73218
4.22636
6.44644
9.54029
9.62282
9.52691
9.79263
10.7355
10.7007
10.9967
0.709991
0.106025
0.110138
0.137949
0.181557
0.331913
3.99362
1.61575
2.42649
5.61028
4.4094
4.37388
4.83352
5.6252
6.04338
4.82456
5.30257
6.14284
6.08732
5.61308
5.18766
3.78877
3.97595
3.62142
3.63962
3.52902
3.54845
3.41327
2.95369
3.22992
3.19766
2.44871
2.63799
1.98455
2.15577
1.63661
1.7571
1.4982
1.47357
0.0939225
0.0973935
0.0864676
0.0881769
0.090947
0.0862998
0.0877673
0.0870144
0.0874332
0.0878722
0.0879423
0.093334
0.0942506
0.0916772
0.0929246
0.0903374
0.0914923
0.0890376
0.0902305
0.0890409
0.101334
0.0999625
0.100115
0.100505
0.0973036
0.0981382
0.099836
0.098254
0.0957118
0.0966617
0.0943775
0.0951852
0.105274
0.104021
0.104052
0.107985
0.106118
0.114916
0.114246
0.113484
0.115825
0.122456
0.119643
0.12013
0.117308
0.116222
0.112349
0.110089
0.120127
0.116738
0.123323
0.14699
0.136931
0.216478
0.216985
0.170422
0.202901
0.311248
0.314118
1.00473
2.0323
0.896242
3.80834
5.77498
7.66495
10.3474
11.7323
11.5414
11.4738
1.49594
2.00929
0.10001
0.539383
1.02736
0.10799
0.112268
0.119718
0.153762
0.195635
0.316349
3.90112
3.15461
5.57893
5.1348
3.91074
4.27551
5.8729
5.97449
4.2893
4.80372
5.75765
5.58942
4.93938
3.37364
3.55619
2.95521
3.10186
3.11384
2.96439
2.5239
2.65799
2.09078
2.27473
1.75613
1.89735
1.43175
1.60794
0.0965929
0.0890831
0.0922296
0.0943543
0.094697
0.0884552
0.0900421
0.0886781
0.0895388
0.0893461
0.0896051
0.0927244
0.0938908
0.0916055
0.0925775
0.0904046
0.0914576
0.0903344
0.0943906
0.100274
0.100001
0.101444
0.0992531
0.0981083
0.097025
0.101701
0.0971242
0.0962067
0.0961251
0.105107
0.103395
0.106931
0.10955
0.109694
0.114789
0.113587
0.123162
0.125324
0.128352
0.127278
0.1406
0.137705
0.135538