/*--------------------------------*- C++ -*----------------------------------*\
  =========                 |
  \\      /  F ield         | OpenFOAM: The Open Source CFD Toolbox
   \\    /   O peration     | Website:  https://openfoam.org
    \\  /    A nd           | Version:  8
     \\/     M anipulation  |
\*---------------------------------------------------------------------------*/
FoamFile
{
    version     2.0;
    format      ascii;
    class       volScalarField;
    location    "11000";
    object      nut;
}
// * * * * * * * * * * * * * * * * * * * * * * * * * * * * * * * * * * * * * //

dimensions      [0 2 -1 0 0 0 0];

internalField   nonuniform List<scalar> 
4109
(
0.000666447
0.000661358
0.000658655
0.000666449
0.000669037
0.000677619
0.000672486
0.000677321
0.000674981
0.000656875
0.00066694
0.000678481
0.000668145
0.000671038
0.000676852
0.000677668
0.000666074
0.000673687
0.000679237
0.000675709
0.000660669
0.000678521
0.000673858
0.000678056
0.000673713
0.000668214
0.000656412
0.000672708
0.000677611
0.000681368
0.000677363
0.000676876
0.000668044
0.000671253
0.000677458
0.000682471
0.000673898
0.000667042
0.000667032
0.000669724
0.000667323
0.000662837
0.000673909
0.000681489
0.00067813
0.00148533
0.000825094
0.000677817
0.000677445
0.00066331
0.000673126
0.000677462
0.00067697
0.00067274
0.000675873
0.000660751
0.00066076
0.000678143
0.000676461
0.000669663
0.000675286
0.00196306
0.000684654
0.000680089
0.000679315
0.000728805
0.00123456
0.000678695
0.000673591
0.000660491
0.000671605
0.000678938
0.000689437
0.000677357
0.000679782
0.000673483
0.00067072
0.000667151
0.000647978
0.000674899
0.000679431
0.00067982
0.000675745
0.000668679
0.000728587
0.000738893
0.00152749
0.00193066
0.00194708
0.000684497
0.000685496
0.00068057
0.000680242
0.000680476
0.00070534
0.000942065
0.000676896
0.000662635
0.00069215
0.000686003
0.000682332
0.000686538
0.000692451
0.000684845
0.000673052
0.000676246
0.000674621
0.000666217
0.000657372
0.000678737
0.000652988
0.000680748
0.000680676
0.000677019
0.000670678
0.00209754
0.000826758
0.000989592
0.00126779
0.00197027
0.00201084
0.000670774
0.000687795
0.000689214
0.000682885
0.000682037
0.000681565
0.000677128
0.000938029
0.000656924
0.000664559
0.000692982
0.000689521
0.000694141
0.000692902
0.000681225
0.000689443
0.000676557
0.000673596
0.000671794
0.000659923
0.000677665
0.000681999
0.000681522
0.000682121
0.000678232
0.000671144
0.00175764
0.00102459
0.00194675
0.00131254
0.00201092
0.000803258
0.000690524
0.000688853
0.000683249
0.000682937
0.000682981
0.000680575
0.000666382
0.000818223
0.000662209
0.000694228
0.000690487
0.000696296
0.000694303
0.000695497
0.000696317
0.000680837
0.000679218
0.000677025
0.000671203
0.000655526
0.000679947
0.000674298
0.000683526
0.000683204
0.000678954
0.000673487
0.00118935
0.00227746
0.00121429
0.00194086
0.00199539
0.000752037
0.000685814
0.000686142
0.000684841
0.000682804
0.000684483
0.000669492
0.0008602
0.000668455
0.000688896
0.000689207
0.000697155
0.000692024
0.000697555
0.000700321
0.000691743
0.000685022
0.000679232
0.000676845
0.000673288
0.000662603
0.000682578
0.000676113
0.000684293
0.000684253
0.000681522
0.000673605
0.00116424
0.0021445
0.00198133
0.00117187
0.00202831
0.000746529
0.000685986
0.00068805
0.000685587
0.00067176
0.000858155
0.000650408
0.000689096
0.000691109
0.000692438
0.000692301
0.000695298
0.000700714
0.000698417
0.000702046
0.00068664
0.000682456
0.00067989
0.00067496
0.000659727
0.000685243
0.000672348
0.000685581
0.000685896
0.000682373
0.000683523
0.000676448
0.00109749
0.00216533
0.00120721
0.00196811
0.00201412
0.000728898
0.000688602
0.00068876
0.000679127
0.000857596
0.000654015
0.000692172
0.00069161
0.000694056
0.000695804
0.000695597
0.000695854
0.000701318
0.00070361
0.000696693
0.000693042
0.000682282
0.00067842
0.000666244
0.000683499
0.000688413
0.000674531
0.000687145
0.000685068
0.00067634
0.000685538
0.00218436
0.00104703
0.00198888
0.00118668
0.00204003
0.000724832
0.000782843
0.000674755
0.000681233
0.000851156
0.000657706
0.000692816
0.00068973
0.000694589
0.000698663
0.00069919
0.00069712
0.000698764
0.000704659
0.000703081
0.000707616
0.000698337
0.000692275
0.000662485
0.000680367
0.000675033
0.000684966
0.000685329
0.000692599
0.000673947
0.000690215
0.00067952
0.000687188
0.00101642
0.00217049
0.00196064
0.00114793
0.00201505
0.000713158
0.000754227
0.000791965
0.000796536
0.000776138
0.000781047
0.000789428
0.000933964
0.000658726
0.000630798
0.000676578
0.000661313
0.000688116
0.00069437
0.000701233
0.000696719
0.000699048
0.000710218
0.000699522
0.000705478
0.000710252
0.000707384
0.000699009
0.000706458
0.000701032
0.000673307
0.000677395
0.000686285
0.000688453
0.000679284
0.000694708
0.000677208
0.000691019
0.000689165
0.000985469
0.00223397
0.00196197
0.000704495
0.000781649
0.000845627
0.000776562
0.000788894
0.000787184
0.000805403
0.000707786
0.000723057
0.000731182
0.000762507
0.000766352
0.000739405
0.000774973
0.000783626
0.00147067
0.000615524
0.000601812
0.00064229
0.000694821
0.000712885
0.000697959
0.000699966
0.000702226
0.000700739
0.000709239
0.000702444
0.000709218
0.000715881
0.00071441
0.000708488
0.000719718
0.000730565
0.000729091
0.000666378
0.000682994
0.000689837
0.000688671
0.000682667
0.000690363
0.000696156
0.000674247
0.000694434
0.000954659
0.00236963
0.000812917
0.000817778
0.000783554
0.000782797
0.000801207
0.000722358
0.000710015
0.000739573
0.00072885
0.00073474
0.000743961
0.000750938
0.00078008
0.000773021
0.000771031
0.00251377
0.00108289
0.000550202
0.000617128
0.00068517
0.000713753
0.000713381
0.000700474
0.00070414
0.00070036
0.000702779
0.00070872
0.00070347
0.000718359
0.000718383
0.000723985
0.000723503
0.000728303
0.000726314
0.000678457
0.00068522
0.000693821
0.000693996
0.000691274
0.00068244
0.000692461
0.000696406
0.000699831
0.000700013
0.000676448
0.000981826
0.000792404
0.000845205
0.000813598
0.000783767
0.000789003
0.000800714
0.000729181
0.000719264
0.000725845
0.00073684
0.000740067
0.000740451
0.000729982
0.000732529
0.000734725
0.000755152
0.000775065
0.000770398
0.000767089
0.00240617
0.00188737
0.000629236
0.000630124
0.000682739
0.000713236
0.00071153
0.000699831
0.000703761
0.000705579
0.000704536
0.000706444
0.000716621
0.000717352
0.00072241
0.000722517
0.000722847
0.000726498
0.000672549
0.000695166
0.000691414
0.000696599
0.000697503
0.000685975
0.000685735
0.000693736
0.000697296
0.000689702
0.00150557
0.00177875
0.000703752
0.000651937
0.000816201
0.0008158
0.000834058
0.000843411
0.000818474
0.000779392
0.000787528
0.000804595
0.000732342
0.000729804
0.000734656
0.00074018
0.000749291
0.000738791
0.000754095
0.000735516
0.000741201
0.000764273
0.000759209
0.000770821
0.000774489
0.00278687
0.00217911
0.00237027
0.000591843
0.000604177
0.000676084
0.000707724
0.000710786
0.00070336
0.000708562
0.00070566
0.000706809
0.000712341
0.000715506
0.000717361
0.000720665
0.000723511
0.000728441
0.000729592
0.000686518
0.000689663
0.000704266
0.000697061
0.000696095
0.00069662
0.000699746
0.000705147
0.000689768
0.000692914
0.000650515
0.00060909
0.000833277
0.000811154
0.000822821
0.000772177
0.000753121
0.000853262
0.000810039
0.000783689
0.000786126
0.000799478
0.000735317
0.000733734
0.000732548
0.000762816
0.000744741
0.000749484
0.000739535
0.000741817
0.000760119
0.000755396
0.000767055
0.000773012
0.000721574
0.00284946
0.00248756
0.00250274
0.000636743
0.000600544
0.000674855
0.000708724
0.000711171
0.000707907
0.000700718
0.000709741
0.000713253
0.000715882
0.000718168
0.000720999
0.000724378
0.000726662
0.000730682
0.000732656
0.000677462
0.000699524
0.000701348
0.00070218
0.000701214
0.000703284
0.000702607
0.000701552
0.000690969
0.000698248
0.000698529
0.000682177
0.000833755
0.000762114
0.000775929
0.000825512
0.000768338
0.000858778
0.000806156
0.000785537
0.000791953
0.000800142
0.000808147
0.000738785
0.00073616
0.000736588
0.000732746
0.000742885
0.000752132
0.000748784
0.000759373
0.000764204
0.00077204
0.000772974
0.000699668
0.00290536
0.00258007
0.00264788
0.00061134
0.000589831
0.000668157
0.000714169
0.000709995
0.000712504
0.000707571
0.000714458
0.000718745
0.000723482
0.000719201
0.000724661
0.000729711
0.000729241
0.000734191
0.000737185
0.000690587
0.0006943
0.000709379
0.000707812
0.000704253
0.000705806
0.000709926
0.000693736
0.000695716
0.000699228
0.000654974
0.00082534
0.000807001
0.000754352
0.000745641
0.000768303
0.000808853
0.000760515
0.000818821
0.00084857
0.000783231
0.000794061
0.00079613
0.000809212
0.000741998
0.000737882
0.0007391
0.000738974
0.000738732
0.00074731
0.000747499
0.000745284
0.000756144
0.000765072
0.000775426
0.00077977
0.000796915
0.00293707
0.00277187
0.00267186
0.000641075
0.000582066
0.000682455
0.000715729
0.000712703
0.000705201
0.000715773
0.000719129
0.000722531
0.000720531
0.00072668
0.000731712
0.00073437
0.000735651
0.000738371
0.000685476
0.000706242
0.00070806
0.000694949
0.000708173
0.000706523
0.000708097
0.000704474
0.000699432
0.000700349
0.000649971
0.000845329
0.000821365
0.000823159
0.000792267
0.000736472
0.000737744
0.000751785
0.000773107
0.000801711
0.000773511
0.000735648
0.000829516
0.000837311
0.000849638
0.000782745
0.000796472
0.000798009
0.000798372
0.000743636
0.000740384
0.000737116
0.000738381
0.000747728
0.000753438
0.000746811
0.000783374
0.000761238
0.000761567
0.000773242
0.000720971
0.00298116
0.00287782
0.00282542
0.000682768
0.000615627
0.000595018
0.000721164
0.000712218
0.000722641
0.000718703
0.000725862
0.000726007
0.00072309
0.000732464
0.000734353
0.000735733
0.000700274
0.000704206
0.00071307
0.000697669
0.000700478
0.000712302
0.000707508
0.000709267
0.000715088
0.000700186
0.000645288
0.000694303
0.000705103
0.00082477
0.000810524
0.000811036
0.00078288
0.000733993
0.00075163
0.000771076
0.000765716
0.000792585
0.000723135
0.00072049
0.000719677
0.000711725
0.000703351
0.000833502
0.000814181
0.000830032
0.000815876
0.000786427
0.000785195
0.000787096
0.000784132
0.000745601
0.000741333
0.000743367
0.000755038
0.00075122
0.000749793
0.00074309
0.000772467
0.000772577
0.00076588
0.000769388
0.000862081
0.00308056
0.00301808
0.00266146
0.000601114
0.000591204
0.00071651
0.00066835
0.000733345
0.000721366
0.000731005
0.000734065
0.000737597
0.000699794
0.000716519
0.000699382
0.000702578
0.000708991
0.000713349
0.000710726
0.000712195
0.000647447
0.000700358
0.000704605
0.000705744
0.000704582
0.000810358
0.000803001
0.000801587
0.000773699
0.000731446
0.000758601
0.000788226
0.000758369
0.000739198
0.000722787
0.000722326
0.000714225
0.000711871
0.000701136
0.000712633
0.000819152
0.000851431
0.000813152
0.000820597
0.000772633
0.000775945
0.000779164
0.000764174
0.000744143
0.000743613
0.00075278
0.000747537
0.000753147
0.000748821
0.000747916
0.000773077
0.000774199
0.000764009
0.000600694
0.00301789
0.00303545
0.00271916
0.000582588
0.000578816
0.000739501
0.00103445
0.000729033
0.000734089
0.000737362
0.000726354
0.000701944
0.000705367
0.000719139
0.000713343
0.000717107
0.000710644
0.000668351
0.000709546
0.000715242
0.000722546
0.000798206
0.000800707
0.000795473
0.000791689
0.000765053
0.00076085
0.000779182
0.000751578
0.000743675
0.000753169
0.000736905
0.000726932
0.000734466
0.000729807
0.00072856
0.000729323
0.0007805
0.00080262
0.000785539
0.000810352
0.000764549
0.00076335
0.000772525
0.000767059
0.000786337
0.0007447
0.000759009
0.000754338
0.000753462
0.000751401
0.000747544
0.000761087
0.000763733
0.000762832
0.000652057
0.00316607
0.0031148
0.0030881
0.000521676
0.000730987
0.000624374
0.000737287
0.000739566
0.000704122
0.0007068
0.000713763
0.000716704
0.000718305
0.000715132
0.000681498
0.000709576
0.000731107
0.000706684
0.000796965
0.000794569
0.000788689
0.000778046
0.000756886
0.000774881
0.000746095
0.000767532
0.000764999
0.00075651
0.000736836
0.000740971
0.000751557
0.000743503
0.000747355
0.000811957
0.000786015
0.000803335
0.000757013
0.000755443
0.000762665
0.000778092
0.000778296
0.000754647
0.000751564
0.000747878
0.000756304
0.00075396
0.000752845
0.000541522
0.00315388
0.00451638
0.000983158
0.00074724
0.000624473
0.000742929
0.00071047
0.000723583
0.000717952
0.000724027
0.000714952
0.000687677
0.000709299
0.000711613
0.000785508
0.000782357
0.000777861
0.000770986
0.000751427
0.000740671
0.000736378
0.000731843
0.000728246
0.000711949
0.000714869
0.000724374
0.000717777
0.000721091
0.000778717
0.000794244
0.000788784
0.00075298
0.000759067
0.000774433
0.000752274
0.000774513
0.000752665
0.000748299
0.000751739
0.000750803
0.000752073
0.00075634
0.00543044
0.005153
0.00141678
0.000765461
0.00057339
0.000718993
0.000721465
0.000716392
0.000720209
0.000692858
0.000715807
0.000728339
0.00078169
0.000783999
0.000769992
0.000762461
0.000745371
0.000741587
0.000736439
0.000733802
0.000716941
0.000721389
0.000729071
0.000722717
0.0007273
0.000768414
0.000776975
0.000780054
0.000761136
0.000763823
0.000753084
0.000769159
0.000747993
0.000747102
0.00074655
0.000749367
0.00112682
0.000979139
0.00628426
0.00682736
0.00239556
0.00122805
0.000722932
0.00072001
0.000727586
0.000725506
0.000632242
0.000724663
0.0007265
0.000766126
0.000767332
0.000764502
0.000760206
0.000752361
0.000751606
0.000743994
0.000733394
0.000730727
0.000744563
0.000738681
0.000737047
0.000768885
0.000764093
0.000769744
0.000759114
0.000750433
0.000753619
0.000760966
0.000871411
0.000966678
0.00155522
0.00832926
0.00824043
0.00135777
0.00103472
0.0019087
0.00072432
0.000722459
0.000726669
0.000734789
0.000564609
0.000728245
0.000724396
0.000769562
0.000767398
0.000759356
0.000754433
0.000749872
0.000746371
0.000731887
0.00073398
0.000742773
0.000739921
0.00073696
0.000766272
0.000765846
0.000757015
0.000754801
0.00075496
0.000758227
0.000575859
0.000754582
0.000793184
0.0024552
0.00119625
0.00083634
0.00188695
0.00179721
0.000728769
0.000725065
0.000749369
0.000536659
0.000730773
0.000726191
0.000755613
0.000757067
0.000754633
0.000749544
0.000747145
0.000729114
0.000736721
0.000742528
0.000741542
0.000736525
0.000765151
0.000762563
0.000749423
0.000763756
0.000750748
0.000752232
0.000473393
0.000481686
0.000625463
0.000612677
0.000561965
0.00184242
0.000996385
0.000638729
0.0016192
0.00166803
0.000729446
0.000736932
0.000767697
0.000732444
0.000731864
0.000731433
0.000756101
0.000749953
0.000748684
0.000743728
0.00073703
0.000732879
0.000743407
0.000739524
0.000737736
0.000760134
0.000748739
0.000759779
0.00074732
0.000747855
0.000374496
0.000387154
0.000487791
0.000432033
0.00163655
0.000406912
0.00191216
0.00153346
0.000776414
0.000447343
0.00133287
0.00152393
0.000725589
0.000745325
0.000731106
0.000733563
0.000735278
0.000750787
0.000749786
0.000749185
0.000745054
0.000737964
0.000737569
0.000743933
0.00074086
0.000739968
0.000755116
0.000745848
0.00074282
0.00138425
0.000287919
0.000294414
0.000346602
0.00025839
0.0014141
0.00028058
0.00197258
0.00159876
0.00122111
0.000550726
0.000267538
0.00103026
0.00136444
0.000739008
0.00072903
0.000734988
0.000731147
0.000740003
0.000742349
0.000745425
0.000743547
0.000736328
0.000737036
0.000743297
0.000740243
0.000740383
0.00139571
0.00115195
0.000214226
0.00020435
0.000207658
0.000103098
0.00116648
0.000183934
0.00202836
0.00164682
0.00128529
0.00092219
0.000332098
0.000108732
0.000728005
0.00118286
0.00163206
0.00113297
0.00093818
0.00015088
0.000119926
8.14011e-05
7.24924e-06
0.000908545
0.000109701
0.00223953
0.00169697
0.00132344
0.000980203
0.00064399
0.000138623
8.72168e-06
0.000443188
0.000977902
0.0018809
0.00130915
0.000914095
0.000734025
9.27037e-05
4.46596e-05
4.63591e-06
0.000653241
5.76403e-05
0.00125552
0.00194706
0.00136939
0.00100911
0.000691586
0.00039302
1.45476e-05
0.000197848
0.00249247
0.0014537
0.00102806
0.000720983
0.000534412
3.76976e-05
1.52106e-06
0.000408117
3.12218e-05
0.00113317
0.000963828
0.00160766
0.00105069
0.000712228
0.000426922
0.000178165
3.37982e-05
0.00404979
0.00185572
0.00110059
0.000790036
0.000537615
0.000341791
1.08881e-06
0.000186941
0.00141726
0.000947371
0.000716757
0.00124653
0.000746578
0.000440606
0.00019663
2.7287e-05
0.00412083
0.003407
0.00129413
0.000813091
0.000584907
0.000356946
0.000162503
2.63084e-05
0.00183977
0.00121068
0.000772495
0.0005074
0.000886787
0.000465253
0.000204844
3.21029e-05
0.0054677
0.00333612
0.00264573
0.000831259
0.000579146
0.000398111
0.000181852
2.42974e-05
0.00217777
0.00146715
0.00100059
0.000604816
0.000331506
0.000550679
0.000218703
3.50781e-05
0.00451382
0.00469129
0.00255939
0.00182865
0.000482846
0.000396946
0.000221598
3.48159e-05
0.00236271
0.00172917
0.0011209
0.000785303
0.000441641
0.000188032
0.000260361
3.95328e-05
0.00400865
0.00376501
0.00382583
0.00183568
0.00107077
0.000252628
0.00024826
6.20125e-05
0.00238555
0.00187165
0.001317
0.000808107
0.000560777
0.000285424
7.84898e-05
5.33471e-05
0.00382053
0.00337741
0.00302153
0.00292992
0.0012197
0.000476692
0.000133461
9.56451e-05
0.00222804
0.00189041
0.00142248
0.000947984
0.000533791
0.000326955
0.000130718
1.52256e-05
0.00377131
0.00320546
0.00271176
0.00229282
0.00205139
0.000699987
0.000144715
9.40191e-05
0.0018688
0.00177234
0.00143751
0.00102199
0.000626261
0.00030168
0.00012439
1.38425e-05
0.00392779
0.00316341
0.00257073
0.00205831
0.00162413
0.00122311
0.000303482
4.00585e-05
0.00142727
0.0014903
0.00135218
0.00103349
0.000674082
0.000354743
0.000117235
9.38756e-06
0.00443617
0.00327216
0.00253539
0.00195268
0.0014441
0.00104257
0.000417376
9.06141e-05
0.00109242
0.00121607
0.00113908
0.000975074
0.000682253
0.000381303
0.000139639
9.39378e-06
0.00518583
0.00375416
0.0026048
0.00192455
0.00137301
0.000891879
0.000556547
3.59376e-05
0.00125123
0.000913527
0.00100253
0.000821993
0.000645285
0.000386379
0.000150519
1.3172e-05
0.00427701
0.00434075
0.00309255
0.00196128
0.00135186
0.000853196
0.000434075
0.000182462
0.00220901
0.000961781
0.000746224
0.000784766
0.000543525
0.00036631
0.000152859
1.51725e-05
0.00417745
0.00355059
0.00333829
0.00245298
0.00136481
0.000838308
0.000419368
0.000123254
0.0020249
0.00191184
0.000713017
0.000585212
0.000558085
0.000307655
0.000144947
1.56556e-05
0.00274417
0.00365306
0.00279723
0.00226114
0.00185553
0.000838418
0.000410133
0.000120326
0.00194539
0.00168967
0.00157269
0.000503549
0.000427464
0.000324388
0.000120233
1.42479e-05
0.00195285
0.00215511
0.00306789
0.00205987
0.00129447
0.00126508
0.000406561
0.000115632
0.00187625
0.00161796
0.00135867
0.00121492
0.000328597
0.000275844
0.000123401
1.00563e-05
0.0016838
0.00153587
0.00163178
0.00243941
0.00139082
0.000593939
0.000605462
0.000112932
0.00181158
0.00156267
0.00129533
0.00103898
0.000861635
0.000186271
0.000125358
9.38795e-06
0.00141402
0.0013545
0.00118996
0.00118064
0.00181524
0.000851352
0.000207713
0.000129752
0.0019133
0.00186852
0.00150153
0.00125162
0.000984478
0.000736059
0.000533216
7.70928e-05
1.26003e-05
0.00139084
0.00115204
0.00106742
0.000904733
0.00081042
0.00122624
0.000467877
5.0484e-05
0.00137002
0.00179337
0.00159698
0.00119075
0.000951524
0.000692425
0.000457031
0.000249954
1.39558e-05
0.00161561
0.00115679
0.000931492
0.000825045
0.000658969
0.000509049
0.000703103
0.000229307
0.000565649
0.00120784
0.00119358
0.00165775
0.0013104
0.000896214
0.000669297
0.000426031
0.000213205
4.94566e-05
0.00140813
0.000941695
0.000734331
0.000612813
0.000453071
0.000283652
0.000262751
0.000407959
0.000501498
0.00116318
0.00101651
0.000985547
0.00150879
0.00100958
0.000624283
0.000411394
0.00019641
3.7262e-05
0.000630548
0.0009409
0.00116933
0.000736687
0.000545854
0.000417519
0.000276213
0.000121614
0.000279816
0.000399689
0.000994822
0.000819426
0.000763008
0.00134489
0.000710664
0.000380257
0.000188091
3.21276e-05
0.000523498
0.000815884
0.000914676
0.000536533
0.000361876
0.000232609
9.74503e-05
0.00018331
0.000308853
0.000814219
0.000623482
0.000537608
0.0011607
0.000430382
0.0001717
2.93583e-05
0.000418995
0.000677301
0.000659929
0.00034326
0.000184331
6.58304e-05
0.000109697
0.000231122
0.000627608
0.000434777
0.000321855
0.000953851
0.000189815
2.53551e-05
0.000317724
0.00052877
0.0004135
0.000163472
3.61149e-05
5.942e-05
0.000163941
0.000441703
0.000258534
0.000132436
3.08788e-05
0.000220529
0.000376418
0.000190302
2.47082e-05
3.22356e-05
0.000101546
0.000263595
0.000103695
1.3016e-05
0.000130275
0.000226763
2.73927e-05
4.1869e-05
0.000105297
7.6916e-06
4.96188e-05
9.05211e-05
1.35486e-06
7.52786e-06
1.97003e-06
5.85657e-06
0.000739585
0.000739076
0.000740665
0.000740913
0.00074181
0.000740995
0.000741164
0.000742195
0.00074003
0.000738883
0.000740168
0.000740603
0.000741435
0.000741388
0.000742065
0.00074486
0.000758743
0.000764177
0.000768441
0.00077816
0.000781929
0.000744002
0.000747463
0.000741898
0.000743746
0.000742504
0.000740705
0.000742166
0.000743589
0.000741021
0.000794401
0.000798712
0.000740022
0.000740085
0.000740986
0.0007412
0.000742322
0.000742136
0.000745558
0.00074812
0.000751272
0.000753319
0.000756747
0.0007645
0.000771966
0.000775309
0.00078975
0.00079406
0.000819214
0.00082105
0.000750107
0.000753159
0.000755797
0.000759589
0.000764064
0.00077154
0.000780627
0.000743743
0.000747904
0.000741637
0.000742642
0.000742646
0.00074089
0.000743438
0.000744614
0.000742379
0.000778203
0.000786141
0.000840078
0.000849226
0.000808835
0.000808869
0.000833303
0.000739869
0.000740631
0.000741237
0.000742457
0.000743897
0.000745464
0.000749434
0.000751018
0.000757955
0.000759912
0.000764765
0.000770891
0.000787288
0.000790764
0.000807524
0.000809404
0.000830986
0.000834188
0.000859954
0.000869136
0.000906109
0.000899415
0.00092256
0.000747039
0.000751966
0.000753487
0.000758213
0.000763787
0.000743761
0.000746849
0.000741636
0.000741948
0.000743591
0.000741542
0.000744497
0.000744469
0.000744743
0.000763707
0.000780105
0.000780992
0.000803556
0.000811605
0.000905665
0.000853025
0.000892409
0.000835442
0.000850251
0.000742877
0.00074316
0.000745434
0.000746156
0.000750105
0.000750596
0.000757304
0.000756318
0.000766307
0.000762494
0.000776293
0.000780158
0.000814045
0.00081033
0.000831857
0.000835378
0.000857255
0.000865986
0.000885662
0.000896177
0.000949923
0.000951511
0.000998921
0.00101805
0.000981821
0.00102422
0.0010308
0.0012291
0.000746522
0.000751766
0.000753088
0.000756969
0.00074594
0.000745379
0.000743833
0.000746529
0.000742156
0.00074197
0.000744432
0.000743751
0.000741997
0.000746274
0.000745148
0.000760911
0.000772213
0.000780707
0.00152643
0.00135096
0.00149905
0.000800659
0.000803327
0.000830598
0.000844481
0.000906441
0.000919213
0.00106567
0.00097116
0.000861073
0.000909713
0.000750735
0.000748146
0.000754291
0.00075071
0.000759181
0.00075475
0.000764571
0.000762238
0.000765546
0.000770801
0.00078107
0.000784395
0.00079464
0.000820136
0.000847449
0.00082206
0.000850115
0.00097089
0.000970273
0.000963887
0.00103051
0.00203176
0.00209464
0.00175649
0.0011791
0.00117971
0.00129787
0.00124798
0.00125009
0.0013763
0.0013884
0.0018702
0.00156555
0.00355206
0.00332284
0.00339948
0.00210653
0.00299624
0.00280561
0.00246291
0.0021232
0.000746582
0.000750846
0.000750454
0.000755451
0.000744147
0.000743567
0.000743951
0.000745656
0.000742593
0.000742565
0.000742171
0.000746427
0.000745441
0.000744281
0.000743668
0.000760347
0.000774038
0.000803197
0.000781839
0.000798244
0.00366305
0.00367475
0.00284462
0.00272597
0.00214774
0.00111801
0.00135774
0.00154739
0.00192815
0.000837519
0.000839287
0.000848128
0.000847204
0.000891466
0.000902649
0.000990515
0.000976263
0.00105818
0.00363293
0.00342486
0.00126146
0.00328204
0.00288461
0.00263647
0.00148378
0.00179047
0.00189212
0.00263088
0.000780005
0.000767366
0.000783859
0.000770329
0.000786369
0.000775388
0.000789913
0.000790304
0.000798556
0.000796321
0.000810574
0.000811167
0.000850063
0.000875798
0.000928638
0.000901082
0.00113621
0.00133241
0.00110024
0.00173934
0.00142722
0.00132761
0.00163009
0.00146132
0.00143809
0.00252538
0.00304899
0.0035029
0.00304482
0.00268157
0.00228411
0.0018055
0.00167149
0.00184543
0.00200694
0.00260062
0.00190812
0.00204339
0.00348499
0.00354998
0.00361257
0.00369931
0.00356994
0.00340336
0.0032923
0.00330249
0.00138573
0.00136689
0.00284716
0.00297136
0.00153367
0.00160427
0.00191152
0.00254601
0.00207279
0.00240933
0.000746577
0.000749733
0.000749112
0.000758576
0.00074321
0.000742991
0.000742975
0.000743889
0.000745188
0.000746444
0.000745198
0.000744523
0.000743516
0.000743389
0.000743107
0.000758604
0.000774327
0.000775676
0.000795095
0.000799464
0.000827278
0.000793942
0.00349758
0.00374796
0.00338259
0.00371031
0.00365095
0.00274088
0.0033237
0.00262434
0.00215672
0.000840134
0.00191871
0.0011798
0.00173614
0.0013507
0.000884343
0.000875396
0.000901213
0.000888342
0.00092217
0.000910573
0.00103334
0.00102542
0.00117798
0.00369713
0.00339311
0.00375768
0.00113345
0.00120528
0.000952174
0.00323885
0.00280141
0.0026595
0.00180229
0.00114183
0.00157858
0.000621139
0.00082623
0.00386839
0.00129104
0.000684632
0.000842012
0.000777112
0.00087543
0.000863843
0.000902837
0.000943027
0.000879121
0.000870656
0.000944336
0.000952188
0.00114362
0.0012156
0.00169041
0.00132932
0.00174632
0.00134828
0.00131214
0.00176909
0.00148371
0.00160944
0.00186905
0.00223728
0.0018445
0.00156234
0.00203096
0.0018101
0.00215277
0.00203311
0.00274157
0.00314676
0.00354102
0.00335266
0.00294858
0.00246949
0.00247842
0.0022713
0.00280555
0.00231879
0.00251976
0.00360708
0.00349873
0.00368509
0.00355565
0.00362697
0.00333142
0.00339046
0.00287795
0.00312522
0.00303453
0.00146092
0.00162573
0.00247862
0.00263895
0.00227128
0.00215552
0.00196165
0.000757539
0.000746431
0.000748862
0.000748623
0.000743111
0.000743738
0.000744836
0.000759314
0.000745966
0.000744883
0.000744501
0.000743737
0.000743853
0.000743354
0.00074383
0.000743902
0.000746841
0.000745109
0.000744487
0.000748489
0.000748047
0.000750372
0.000772767
0.00077397
0.00077636
0.00078551
0.000843714
0.000814691
0.000812798
0.000796862
0.00381283
0.00380608
0.00354019
0.00244846
0.00335237
0.00284005
0.000872772
0.000914985
0.0009293
0.00241593
0.00142169
0.00225941
0.00153849
0.00093834
0.000927267
0.00100629
0.000989009
0.00115943
0.00116761
0.00134184
0.00376708
0.00378191
0.00357422
0.00387885
0.00392596
0.00339613
0.000839725
0.000904309
0.00067424
0.00294094
0.00271322
0.0020796
0.00150903
0.000864564
0.00911282
0.00820944
0.00217189
0.000903593
0.00742716
0.0052822
0.00139166
0.000907636
0.00114887
0.000909774
0.00107671
0.000993101
0.00112923
0.0012758
0.00124972
0.00177953
0.0018088
0.00150811
0.00223608
0.00173254
0.0019484
0.00250709
0.00247222
0.00270189
0.0022217
0.00239233
0.00258346
0.00287073
0.00222878
0.00242751
0.00264751
0.00234696
0.00273321
0.0024358
0.00348784
0.00319311
0.00339267
0.00330559
0.00307386
0.00305371
0.00318701
0.00305977
0.00297717
0.00365262
0.00349421
0.00341737
0.00352627
0.0034906
0.00302799
0.00328102
0.00257296
0.00277322
0.00215364
0.00228746
0.000756056
0.000753083
0.000749751
0.000756798
0.000744117
0.00074602
0.000747541
0.000754917
0.000761431
0.000745234
0.000744221
0.0007443
0.000743608
0.000744017
0.000743645
0.000744609
0.000744777
0.000748056
0.000742029
0.000747127
0.000748466
0.000751015
0.000752571
0.000770917
0.000774639
0.000785401
0.000794149
0.000859742
0.000843771
0.000836312
0.00081432
0.00317593
0.0033086
0.00384344
0.000925054
0.000944406
0.000943548
0.00103029
0.000987612
0.00233745
0.00297695
0.00165283
0.00209718
0.00138708
0.00128635
0.00168945
0.0016822
0.001499
0.0037024
0.00391684
0.00394123
0.00374359
0.00374747
0.00351833
0.00303335
0.00276561
0.000615832
0.000704581
0.00239448
0.00188416
0.0014598
0.000788069
0.00915419
0.0103082
0.00382675
0.00830545
0.0101741
0.00984342
0.00550975
0.00340435
0.00942705
0.00895586
0.00456683
0.00252689
0.00352402
0.00204277
0.00293846
0.00185403
0.00252861
0.00252225
0.00203723
0.00300756
0.00261412
0.00261807
0.00252058
0.00265117
0.00315518
0.0030694
0.00311593
0.00334483
0.00306552
0.00279503
0.00324
0.0034203
0.00288894
0.00317163
0.00338475
0.00308277
0.00338524
0.0036106
0.0034581
0.00359892
0.00346814
0.00357033
0.0034444
0.00345058
0.00347546
0.00355057
0.00354205
0.00315442
0.00337489
0.00269561
0.00284735
0.00216572
0.00232795
0.000759238
0.00075684
0.000756165
0.000753959
0.000749569
0.000749965
0.000753635
0.000759534
0.000765248
0.000746978
0.000741816
0.000746835
0.000742279
0.000748295
0.000744484
0.000751187
0.000746277
0.000747607
0.000749203
0.000750654
0.000752759
0.000754039
0.000775602
0.000777035
0.000786277
0.000816171
0.000802399
0.000780701
0.000912164
0.000872338
0.00087652
0.000846254
0.000953522
0.00382995
0.00337828
0.00097903
0.000931449
0.00121258
0.00111424
0.00182013
0.00214879
0.00220614
0.00210847
0.00305095
0.00257916
0.00228906
0.00248188
0.00234394
0.00394836
0.00414282
0.00377806
0.00396627
0.00323941
0.00293679
0.00237632
0.00219271
0.00189118
0.00179661
0.00060863
0.00134803
0.0076755
0.00987822
0.00229493
0.00576193
0.0096701
0.0106804
0.00857517
0.00738795
0.01071
0.0102589
0.0069495
0.00582215
0.00571927
0.00380091
0.00439598
0.00351602
0.00316438
0.00331438
0.0041617
0.00345219
0.00393329
0.00334515
0.00360647
0.00363575
0.00388313
0.00378914
0.00375861
0.00362718
0.00356748
0.00335298
0.0036646
0.00381417
0.00345275
0.00361687
0.00372666
0.0035943
0.00370665
0.00358713
0.00354865
0.00355172
0.0036421
0.00363189
0.00361927
0.00326285
0.00342247
0.00276567
0.00293805
0.00222339
0.00239941
0.000788374
0.000666963
0.000759282
0.000760242
0.000759202
0.00075762
0.000756803
0.000754809
0.000756659
0.000757999
0.000763687
0.000763779
0.00078031
0.000747351
0.000746568
0.000748213
0.000748294
0.000751833
0.000749116
0.00074998
0.000751788
0.000753125
0.00075399
0.000755737
0.000775606
0.00079961
0.000803249
0.000849822
0.000792806
0.000800422
0.000951773
0.000895248
0.000905466
0.000849038
0.00101061
0.00115412
0.000905845
0.00389762
0.00373756
0.0018882
0.00167677
0.00240227
0.00351944
0.00316739
0.00285581
0.00306468
0.00341776
0.00363461
0.00305396
0.00384633
0.00446608
0.00305287
0.00354187
0.0025483
0.00225128
0.00181506
0.00166864
0.000597279
0.000906088
0.00597482
0.00920835
0.00155988