/*--------------------------------*- C++ -*----------------------------------*\
  =========                 |
  \\      /  F ield         | OpenFOAM: The Open Source CFD Toolbox
   \\    /   O peration     | Website:  https://openfoam.org
    \\  /    A nd           | Version:  8
     \\/     M anipulation  |
\*---------------------------------------------------------------------------*/
FoamFile
{
    version     2.0;
    format      ascii;
    class       surfaceScalarField;
    location    "11000";
    object      phi;
}
// * * * * * * * * * * * * * * * * * * * * * * * * * * * * * * * * * * * * * //

dimensions      [0 3 -1 0 0 0 0];

internalField   nonuniform List<scalar> 
6926
(
-1.05308
0.0710304
-0.652857
-0.575153
0.174931
-0.941648
0.0740222
-0.11292
-0.539937
0.0688487
-0.756921
-0.752278
-0.0144388
-0.635251
-0.0481789
0.234424
-1.05805
-0.0648818
0.0131677
-0.583537
0.177766
-0.717703
-0.644037
0.466534
-0.586708
0.133342
0.0251469
-0.66014
-0.828081
-0.244412
-0.409726
-0.067918
0.0526743
-0.568293
0.156253
-0.873956
-0.555702
-0.534205
0.000170975
-0.533756
0.257371
-0.680505
-0.165025
-0.767876
-0.57277
-0.794974
-0.217314
-0.210007
0.0233041
-0.38159
-0.191513
-0.574195
-0.122765
-0.751191
-0.896196
0.12969
-0.13117
-0.592823
0.119815
-0.423188
-0.812396
0.0723861
-0.511072
0.000171649
-0.528536
-0.00504826
-0.53411
-0.00349319
-0.102483
-0.938837
-0.388219
0.252407
-0.436958
-0.563079
-0.0424531
-0.10126
-0.471843
-0.185245
-0.511715
0.0459093
-0.7971
-0.113066
-0.705418
0.225661
-1.06843
-0.00149962
0.0947435
-0.787325
-0.00262115
-0.533632
-0.788735
-0.00795575
-0.612508
0.000175532
-0.525005
-0.00335992
0.153228
-0.139929
-0.827722
-0.818035
-0.527905
-0.0112531
-0.534207
-0.0323656
-0.0383873
-0.648043
-0.523781
0.0443699
-0.420776
-0.236312
-0.886582
-0.834035
0.036935
0.000159864
-0.699401
-0.00617667
-0.867638
0.024869
-0.983456
0.0335763
-0.727567
-0.256032
-0.533914
-0.0107252
-0.522747
-0.753593
-0.13176
-0.14349
-0.759401
-0.849008
0.000186911
-0.528042
0.00321319
-0.519904
-0.0113607
-0.174014
-0.682409
-0.389418
-0.612318
-0.528254
-0.0172063
-0.534173
-0.0219738
-0.0363954
-0.567278
-0.89008
0.056045
-0.223853
-0.625794
0.143547
-0.0273553
0.275693
-0.391885
-0.332063
-0.558017
0.359358
-0.547874
-0.0835481
0.000177386
-0.61603
0.840962
-0.470747
-0.453763
-0.0328526
-0.958587
-0.0773626
-0.642654
-0.375951
0.0707693
-0.422385
-0.0980923
-0.533891
-0.0226718
-0.521967
-0.00891482
-0.513655
0.584358
-0.592636
-0.0690851
-0.425328
-0.512199
-0.437887
0.252504
-0.292857
-0.349065
0.0160357
-0.522933
0.461579
-0.65956
-0.0258718
-0.387626
0.000197182
-0.54668
0.0188242
-0.510652
-0.00603907
-0.51625
-0.0233644
-0.132559
-0.586246
-0.209274
-0.535603
-0.532877
-0.018502
-0.0516421
-0.53761
-0.301366
-0.0149852
0.288996
0.869893
-0.234842
0.300144
0.00805327
-0.053582
-0.346356
-0.284694
-0.0086182
-0.129034
-0.472422
-0.687051
-0.0295159
0.000198067
-0.586713
0.121513
-0.621776
-0.575133
0.242882
-0.991439
-0.0208529
-0.551031
-0.0688958
-0.544593
0.0134379
-0.533916
-0.0348675
-0.521696
-0.0225191
-0.508363
-0.00238065
-0.511076
0.191057
-0.68722
0.672159
-0.357304
-0.383941
-0.0403504
-0.461781
0.0515078
-0.440923
0.000841229
-0.472266
0.0787549
-0.504954
-0.466579
0.107163
-0.41371
0.00021196
-0.580621
0.0341385
-0.529824
0.0379968
-0.524825
0.00253596
-0.528242
-0.027999
0.0949349
-0.0988363
-0.531701
-0.542953
-0.542602
-0.0135093
0.359347
-0.406338
0.0320061
0.413501
-0.286752
-0.344298
-0.325623
-0.0893331
0.20807
-0.895121
-0.551104
0.00945719
0.000227815
-0.596398
-0.00644627
-0.605872
-0.641764
0.0601854
-0.748557
-0.000268521
-0.537325
-0.00140866
-0.543453
-0.0429896
-0.525793
-0.0408309
-0.503384
-0.0173795
-0.493364
0.0130065
-0.523855
-0.188883
-0.497495
-0.494069
0.051125
-0.0133602
-0.478688
-0.509492
-0.0243447
-0.461282
0.034476
-0.540839
0.30676
-0.77359
0.00025108
0.00021322
-0.610629
0.0302202
-0.583766
0.0880805
-0.111286
-0.375542
-0.457051
-0.0686552
-0.552052
-0.0185493
0.00471985
0.00261636
-0.539037
-0.551742
0.360357
-0.328689
0.000337991
0.000267784
-0.635156
-0.0347655
-0.418413
0.000390455
-0.325918
-0.00317797
-0.30606
-0.236257
-0.640765
-0.133745
-0.761376
0.00536267
0.000277364
-0.602038
0.00296427
-0.603474
-0.633404
-0.00539636
-0.688372
-0.0441518
-0.536163
-0.038439
-0.549165
-0.0529973
-0.513627
-0.0641142
-0.456649
0.0143356
-0.494693
0.028231
-0.551808
0.0543073
-0.5139
-0.467532
0.00716949
-0.514045
0.00966146
-0.48118
0.0131544
-0.464774
-0.0280939
-0.551184
-0.624778
0.0143622
-0.62507
0.000543471
-0.628611
0.0750646
-0.363019
-0.205319
-0.65048
-0.590313
-0.0303937
0.0038311
0.00331994
-0.546189
-0.566461
-0.617999
-0.00680335
-0.605542
-0.0121198
-0.453631
0.000452262
-0.59075
-0.0144015
0.000514338
-0.457323
-0.0388527
-0.503465
-0.108637
-0.665873
-0.00799599
-0.75338
0.011774
0.000328065
-0.61414
-0.0325894
-0.559111
-0.623945
-0.0420482
-0.693768
-0.0531079
-0.536052
-0.0432463
-0.559027
-0.097319
-0.480422
-0.368774
-0.0735401
0.0840416
-0.550504
0.0266138
-0.578094
-0.018017
-0.523977
-0.472395
-0.0050964
0.0068184
-0.482902
-0.515822
0.00921869
-0.467175
-0.0294158
-0.565015
-0.63821
0.0239609
-0.630363
-0.00730259
-0.668038
0.0926231
-0.76518
-0.0304525
0.00622513
0.00398143
-0.556395
-0.590629
-0.619335
-0.017832
-0.606077
-0.0253771
-0.574874
-0.015423
-0.590999
-0.0294795
-0.0118906
-0.562469
0.000578592
-0.496754
-0.0381544
-0.573947
-0.00804385
-0.665825
0.0780458
-0.831426
0.0925004
-0.707007
0.000367258
-0.0311261
-0.435484
-0.359096
-0.295975
-0.735816
-0.073324
-0.560047
-0.0497558
-0.582595
0.332894
-0.617626
-0.221069
-0.157893
-0.549502
0.000387531
0.065667
-0.589557
-0.593879
0.0161519
-0.0156558
-0.537737
-0.478832
0.00295943
-0.5148
-0.0015832
-0.478359
-0.00292268
-0.465835
-0.0296298
-0.585141
-0.65972
0.0156421
-0.638116
-0.0289061
-0.691709
0.019152
0.00257496
-0.0149361
-0.544034
-0.618507
-0.613729
-0.0422194
-0.602414
-0.0366914
-0.570492
-0.0359301
-0.593475
-0.0384191
-0.0324985
-0.549885
-0.00215609
-0.559735
0.000635177
-0.535544
-0.00249437
-0.579496
0.0851709
-0.67295
-0.12691
-0.704516
0.492506
-0.395559
-0.25484
-0.302074
-0.665724
-0.366067
0.0226576
0.108155
-0.526371
-0.0830665
-0.69805
-0.059417
-0.606245
0.0557557
-0.607714
-0.527254
0.000409949
-0.600873
0.00738176
0.027473
-0.600878
0.00891415
-0.490669
-0.558453
0.0251905
-0.0333405
-0.470209
-0.504545
-0.0267962
-0.472379
-0.031594
-0.612964
0.0193085
-0.490353
0.414872
0.0561731
-0.69999
0.0239236
-0.625175
-0.103722
-0.0495365
-0.0104721
-0.484025
-0.648891
-0.600068
-0.0673264
-0.582229
-0.0545303
-0.555978
-0.073427
-0.0246019
-0.596046
-0.0822996
-0.506177
-0.00588044
-0.54616
0.0103003
-0.5694
0.000694323
-0.538733
0.0367387
-0.531064
-0.532694
-0.292503
0.152247
0.0035378
-0.663141
-0.0224783
-0.682038
0.105473
-0.771196
0.562669
-0.709354
0.00179857
0.0448118
-0.572982
-0.525879
0.000423467
-0.0388868
-0.603407
-0.00156592
-0.643566
0.0299704
-0.610212
-0.601387
0.000923923
0.0137511
-0.607247
0.0116417
-0.601689
-0.505823
0.0617753
-0.0301366
-0.501848
-0.453242
-0.123233
-0.379283
-0.0680922
-0.546437
0.960472
-0.645463
-0.315008
-0.368036
0.541164
-0.153819
-0.562196
-0.296193
0.42627
-0.184481
0.173082
0.696716
0.319928
0.192337
0.292666
-0.0587328
-0.322825
-0.614442
-0.947793
-0.474946
-0.576568
-0.688684
0.146412
-0.553685
-0.189529
0.00326028
-0.581547
-0.605558
-0.0639154
-0.316085
-0.371772
-0.00292015
-0.509137
0.0193017
-0.555161
-0.42445
0.135484
0.0237261
-0.592432
0.000750187
-0.502744
-0.439731
0.0609134
-0.490552
-0.195067
0.100156
-0.782194
0.0632701
-0.453666
-0.721549
-0.0606445
-0.008988
-0.762208
-0.673531
-0.00521563
-0.0725227
-0.495243
-0.531538
0.000443422
-0.599163
-0.00180019
0.0201539
-0.593591
-0.168
-0.455412
0.02595
-0.622411
-0.604321
-0.00200192
0.0475963
-0.717377
-0.58146
-0.575677
-0.305454
-0.437185
-0.277253
1.01864
-0.0482192
0.373176
-0.504029
0.427086
-0.0704031
-0.551934
0.530858
-0.132742
-0.669086
-0.179041
-0.0184523
-0.703097
0.656844
-0.0177739
-0.657522
0.604484
0.0216251
-0.0438792
-0.58223
-0.0824132
0.77913
-0.410597
0.135584
0.46735
0.411032
0.0172173
0.397705
-0.0293513
-0.40193
-0.78819
-0.638693
0.208536
-0.430735
-0.397487
0.165328
-0.592803
0.0450643
-0.690527
-0.429444
0.179022
-0.174028
-0.0824008
0.23892
-0.472604
-0.457093
0.0359147
-0.52575
0.0453779
-0.576813
-0.364637
0.0603906
0.028705
-0.620386
-0.442625
0.000793991
0.520224
-0.3621
-0.094854
-0.104287
0.682707
-0.0865081
-0.133059
0.595873
-0.00916272
-0.550786
0.574416
-0.00200538
0.0375096
-0.799718
-0.708544
0.142092
-0.261262
-0.376073
-0.389914
0.000467972
-0.598116
-0.000604258
-0.0101986
-0.595923
0.0799112
-0.647552
-0.812685
-0.611064
-0.013348
0.14187
-1.1365
-0.745044
0.984561
-0.10559
-0.188554
0.462202
-0.00174778
-0.611502
0.526926
-0.0481664
-0.727597
-0.0629465
-0.0407925
-0.660609
-0.743889
0.049548
-0.0582196
-0.573559
0.00271254
0.637805
-0.00300308
-0.637515
-0.498525
0.0137547
-0.00183403
0.45543
0.792884
0.329875
0.0793231
0.410295
0.00462688
0.434988
-0.00213709
-0.20739
-0.939583
-0.787044
0.277336
-0.509495
0.0405974
-0.588336
0.0950518
-0.546659
-0.260171
0.0745561
-0.366609
-0.0675902
-0.0821522
0.111776
-0.502228
-0.503331
0.056773
-0.537145
0.102098
-0.650206
-0.38304
0.0008059
0.0130721
-0.632664
0.423706
-0.466708
-0.0518517
-0.0471903
-0.547127
-0.0526403
-0.037762
0.566588
-0.00133429
0.637962
-0.00216217
0.116149
-0.915867
-0.853656
-0.0495996
-0.571663
0.766505
-0.669631
-0.0974262
0.000551472
0.000517752
-0.595948
-0.00169995
0.00124191
-0.597769
-0.243689
-0.426552
0.000610062
0.707355
-0.416078
-0.340877
0.046455
-0.125529
-0.640701
-0.786951
-0.475078
-0.0433891
1.01381
0.84137
-0.0610597
-0.0747819
0.550938
-0.0257597
-0.633537
0.526806
0.0585644
-0.750204
0.0537206
0.640016
-0.639906
-0.00311268
-0.895642
0.151752
-0.697957
-0.197684
-0.567076
0.0622611
-0.269416
-0.366404
0.692615
0.100269
-0.00534207
0.00327785
-0.00335889
-0.637434
-0.432986
0.639952
0.145353
0.45385
0.0357679
0.442161
-0.00254645
0.580506
-0.0317044
-0.136961
-0.170051
-0.632571
-0.646669
0.123
-0.591897
0.0769512
-0.570235
0.0872034
-0.522087
-0.309243
0.000758897
-0.377489
0.000656077
-0.0673774
0.074585
-0.509436
-0.513935
0.0737336
-0.508781
0.00130478
-0.638439
-0.635259
0.00340011
0.425137
-0.477158
0.000169843
0.000457544
-0.529565
-0.000233902
-0.000739151
0.637922
-0.00129456
0.639813
-0.00195959
0.223785
-1.13965
0.727297
-0.272302
-0.698684
-0.0174115
0.163617
-0.562283
-0.587833
-0.58882
-0.00661012
-0.590814
0.0025457
0.00496819
-0.604437
-0.699534
0.000679395
0.0561337
-0.646338
-0.673599
-0.283403
0.0894982
-0.538666
-0.224431
0.399852
-0.577113
-0.715927
0.896987
-0.0131858
-0.0388364
0.425006
0.510817
0.559343
0.454466
0.822653
-0.0260029
-0.00233279
0.544943
-0.0438968
-0.609178
0.526644
0.141099
-0.910894
0.355436
-0.63883
-0.00443461
0.473111
0.156672
-0.632897
-0.590843
-0.245649
-0.483699
-0.304828
0.0128603
-0.624914
-0.70754
0.218499
0.0326799
0.00365749
-0.00155169
-0.63954
-0.416468
0.542553
0.0566506
0.480881
-0.00295225
0.611598
-0.0336385
0.569845
-0.0566062
-0.0315725
-0.5115
-0.555242
-0.102572
0.0483237
-0.484418
0.0553627
-0.570309
0.0635111
-0.546543
0.0692792
-0.516781
-0.636071
0.00157148
-0.636544
0.00112904
-0.0685708
0.0673334
-0.508198
-0.508772
0.00939429
-0.51687
-0.636493
0.00145458
-0.63698
0.000893111
-0.637373
0.00056342
-0.63771
0.000102415
-0.000526747
0.639434
-0.000915282
0.421407
0.0497448
-0.390772
0.386645
0.1608
-0.191984
-0.947669
-0.0519133
-0.838754
-0.0417824
0.135336
-0.655836
-0.624647
-0.581787
-0.0292609
-0.533328
-0.0459133
0.0450145
-0.522208
-0.752134
0.000686895
-0.484452
-0.161206
0.323694
-0.765471
-0.675636
-0.424207
-0.475861
0.85995
0.012764
0.415482
0.405632
0.265075
0.575413
-0.508712
1.06806
0.456571
0.831368
-0.000401052
-0.0818582
0.534535
-0.0517885
-0.51931
0.526401
0.134008
0.130855
-0.294729
-0.634961
-0.00542082
-0.542927
-0.0944043
0.276526
-0.179184
-0.488115
0.519704
0.0555287
-0.433375
0.129315
-0.320853
0.00390814
0.0105195
-0.653967
-0.283245
0.540898
-0.00336597
0.62756
-0.0189147
0.640157
-0.103951
0.538643
-0.0607141
0.0663617
-0.59314
-0.00806449
-0.455112
-0.507943
-0.0389191
0.0200481
-0.465547
0.0390165
-0.545814
0.0533202
-0.530584
0.0615388
-0.510986
-0.636496
0.00157429
-0.636966
0.00159856
0.0096851
-0.509063
-0.00287129
-0.495642
-0.532364
0.0169484
-0.637537
0.00146457
-0.638186
0.0012124
-0.638844
0.000760511
6.27988e-05
0.412485
0.00800668
0.389094
0.0472957
-0.24137
0.140905
0.261265
0.221554
-0.186397
-0.0411858
-0.906483
-0.0344827
-0.845457
0.0117442
0.068324
-0.735904
-0.642164
-0.376224
-0.311853
0.115616
-0.446826
-0.315354
0.0936334
-0.300488
-0.787351
0.00073449
-0.443282
-0.0404831
-0.102717
-0.373843
-0.0768791
-0.620268
-0.486378
-0.177651
1.04812
0.734723
0.333332
0.290065
-0.272849
0.388416
0.0702107
0.484929
0.133349
0.898635
0.820535
0.0364139
0.726612
0.0120647
0.525955
-0.0513426
-0.497911
0.52611
0.105809
-0.437326
0.0702701
-0.00544352
-0.618243
-0.0061992
0.29707
-0.104371
-0.371883
-0.527854
-0.0204933
-0.0989309
-0.483588
0.00401725
0.0483327
-0.706317
0.600082
-0.00365496
0.645974
-0.0217801
0.625287
-0.00404459
0.508067
-0.0733744
0.520725
-0.0554834
-0.0934224
-0.538637
-0.00725244
-0.427811
-0.476179
-0.0256208
0.00965107
-0.449577
0.032116
-0.52461
0.0488658
-0.517911
-0.0168114
-0.497046
0.542547
-0.513807
-0.0271411
0.011757
0.024208
-0.516323
-0.00451319
-0.466921
-0.477944
-0.0343984
-0.447588
-0.029144
0.424793
-0.0122447
-0.022035
0.390892
0.00620845
0.114819
-0.163825
0.189911
0.42338
0.225028
-0.1673
0.240986
-0.130313
0.0418677
-0.948351
0.0355844
-0.839174
-0.752518
0.000751033
-0.271671
0.0877026
-0.551936
-0.467908
0.101015
-0.454207
0.00999705
-0.413202
-0.430826
-0.011721
0.00881852
-0.423145
0.0317428
-0.564308
-0.548058
-0.110582
0.789901
0.187905
0.587371
0.624716
0.110008
-0.468175
0.563637
0.23787
-0.0251287
0.483755
0.0814394
0.536839
-0.0511516
0.481611
-0.804699
0.715487
0.101277
0.0894349
0.52122
-0.046453
-0.509048
0.525769
0.0890872
-0.584187
0.145409
0.125856
-0.563208
-0.00670219
0.273614
-0.322502
-0.0554837
-0.565096
0.0310419
-0.0593246
-0.41149
-0.484322
-0.0197596
-0.711341
0.200875
-0.195851
-0.0690221
-0.355518
-0.0068148
0.608353
-0.00484695
0.530404
-0.0263817
0.50752
-0.0601696
-0.0490554
0.514792
-0.0347691
-0.529488
-0.00881779
-0.409343
-0.452881
-0.0229522
0.00632936
-0.432954
0.0306676
-0.506412
-0.0140576
-0.520665
-0.464141
-0.0374183
0.609105
-0.494711
-0.141535
0.104539
0.00420681
-0.366588
-0.457816
-0.0712929
-0.434359
-0.052601
0.416125
-0.0374774
-0.0402694
0.297586
0.132002
-0.159962
0.309249
0.0406233
0.21152
-0.146454
0.21605
-0.142364
0.230359
-0.0870578
0.193167
-1.14152
0.0429453
-0.688952
-0.710301
0.000728762
-0.426439
-0.00363625
-0.122847
0.0875764
-0.516666
-0.48974
0.0645735
-0.508784
0.00118793
-0.405571
-0.423945
-0.0109215
0.0516264
-0.528358
-0.531201
-0.0130471
0.759816
0.424796
-0.107343
0.472448
0.055607
0.557094
0.0369011
0.525341
0.599579
0.0251364
0.55599
0.117655
-0.277573
0.422324
0.0931197
0.038273
0.526922
-0.00172713
0.487415
0.286285
-0.0822474
-0.0267351
0.626314
-0.820419
0.729093
0.192603
0.126846
0.0480106
0.796662
0.51828
-0.0389637
-0.400053
0.525436
-0.0362953
0.622534
0.232415
0.36789
-0.684679
0.112881
-0.357947
-0.0238793
-0.500014
0.0467341
-0.00700869
-0.424241
-0.544982
-0.00638702
-0.00565103
-0.545107
-0.146387
-0.0416064
0.510831
0.547485
-0.0219277
0.534117
-0.0529789
-0.0521507
0.506773
-0.0378552
-0.514585
-0.0100857
-0.392928
-0.432299
0.0258779
-0.0268753
-0.431957
-0.340158
-0.119777
0.00892898
-0.529398
-0.51809
-0.0399929
0.506742
-0.388754
-0.259524
-0.200004
0.633416
-0.318933
-0.367084
0.17337
-0.251054
0.511164
0.190197
0.151961
0.421278
-0.169135
0.219951
-0.150354
0.207915
-0.11992
-0.937461
-0.204056
0.305846
-0.731495
-0.263304
-0.405074
0.000619743
-0.425075
-0.000635254
-0.42439
-0.00319092
-0.0836667
0.0755861
-0.508585
-0.508833
-0.00262296
-0.504973
-0.417811
0.00131808
0.0558328
-0.508604
-0.513223
-0.87049
-0.066971
-0.88764
0.0171495
0.018534
0.633938
-0.00779675
0.535852
0.0546772
0.539318
0.0368219
0.526792
0.552874
0.0282526
0.477436
0.0625417
0.387912
-0.00850664
0.040023
0.485172
0.407323
-0.00215615
-0.0497569
0.575896
0.684392
-0.0580777
0.746014
-0.0616222
0.906461
-0.160447
0.362533
-0.343712
0.945396
0.0392691
0.685139
0.452861
0.94511
0.131907
0.68329
-0.516012
0.504261
-0.029856
-0.0295396
0.525148
-0.193554
0.169377
0.748177
-0.518134
0.131001
-0.373101
0.00814488
-0.423194
0.045687
0.545783
-0.00394957
-0.00571098
0.435861
-0.19206
-0.390188
-0.301283
0.219009
0.0471349
-0.0421456
0.499272
0.505815
0.560936
-0.0487464
-0.085533
0.539327
0.0313632
-0.520071
0.0241083
-0.447478
-0.395695
0.0147333
-0.0348085
-0.411881
-0.511256
-0.126611
0.00338012
-0.572771
0.47158
-0.557734
-0.23968
0.538529
-0.309737
-0.0385952
0.323405
0.256131
-0.144589
0.213826
-0.16301
0.207231
-0.14967
-0.839777
-0.0957738
-0.668837
0.000458763
-0.424755
0.000299316
-0.42466
-0.000365524
-0.422411
0.0014095
0.0122385
-0.0265664
-0.494257
-0.499217
-0.508327
0.00467264
0.034374
-0.516234
-0.500797
0.523465
-0.325293
0.164361
-0.848508
-0.0582405
-0.307893
0.0595931
0.566549
0.0523634
0.538165
0.049473
0.526667
0.0893548
0.47746
0.48538
0.0203095
0.432915
0.0175386
0.401399
-0.0025826
0.0315228
0.451493
0.467139
-0.0315165
-0.207906
0.725724
-0.104374
0.363607
-0.407557
0.209588
-0.127325
0.667539
-0.00343756
-0.599656
-0.151613
-0.0925631
0.394545
0.682471
0.431326
0.416079
0.588438
0.154445
-0.0851494
0.685853
-0.521717
0.485481
0.00638024
-0.0261086
0.0297378
0.524885
0.486811
-0.0434761
-0.392375
0.100183
-0.367519
0.0401051
0.598805
-0.0418188
-0.202906
0.282829
-0.271983
-0.252482
0.234028
-0.321524
0.148158
-0.0990512
0.519333
-0.00848761
0.408708
0.575516
-0.0849355
0.0268914
-0.532229
0.0401958
-0.484294
-0.390307
-0.0453844
-0.0721982
-0.294299
0.671495
-0.541343
-0.369832
-0.027887
0.245351
-0.47968
0.162259
-0.458251
0.469771
-0.252236
0.260113
-0.190876
0.216132
-0.171911
-0.764789
0.000178728
-0.424749
0.000453179
-0.424919
0.000559148
-0.424245
0.00146817
-0.527626
0.0207085
0.00412403
-0.0117465
-0.486635
-0.490421
0.0523961
-0.541738
-0.460147
-0.436388
0.292855
-0.822835
-0.000194665
-0.0794834
0.144266
0.523654
0.539429
0.0612388
0.5264
0.140194
0.475828
0.0746783
0.434305
0.446754
0.00647078
0.421925
-0.00298689
0.016882
0.432028
0.42062
-0.00538267
0.297179
0.0190669
0.604567
0.0562193
-0.315518
0.0887186
-0.424692
-0.0181506
0.582165
0.0189638
-0.52364
-0.0526649
-0.0340377
0.241961
0.594955
0.572891
0.400101
0.33912
0.190864
0.524727
0.438072
0.0402514
-0.630726
0.378801
0.258305
-0.131949
0.479841
-0.144516
-0.072419
-0.0529406
0.525461
-0.339801
0.0724652
0.584487
-0.05079
0.242694
0.0698096
-0.221892
0.212105
-0.262418
0.174922
-0.297166
0.105523
-0.660973
0.413099
0.197084
-0.226575
0.269712
-0.0875791
-0.0175813
-0.560032
0.146238
-0.658419
-0.316267
-0.137008
-0.473558
0.247653
-0.455226
0.268312
-0.27822
0.193665
-0.383604
0.23342
-0.225543
0.219788
-0.194533
-0.424823
0.000252704
-0.425176
0.000709342
-0.425131
0.00144535
-0.557161
0.0310028
-0.0496438
-0.0710467
-0.365944
-0.519356
0.143597
-0.702917
-0.387596
-0.529218
-0.000761552
-0.424833
-0.000184808
-0.074542
0.525777
0.526125
0.16662
0.499974
0.181991
0.368516
0.0308719
0.420315
0.431761
-0.00336558
0.00502435
0.424017
0.430059
-0.00368089
0.453017
-0.00389061
0.513129
-0.00389294
-0.439105
-0.00139438
-0.455169
-0.00208729
0.535805
-0.0037122
-0.505079
-0.00275472
-0.00331152
0.238915
0.52484
0.525095
-0.203385
0.596163
-0.288918
0.516721
0.0419094
0.061575
0.418394
0.101698
-0.36528
0.479069
-0.189628
0.199509
0.515579
-0.358121
0.206038
-0.236653
0.18634
-0.257248
0.135005
-0.196076
0.251054
-0.245073
0.246081
-0.087305
0.358953
-0.13831
-0.55873
-0.0242627
-0.386503
-0.128398
-0.369423
0.116004
-0.377566
0.228649
-0.273449
0.158331
-0.313286
0.217592
-0.223347
-0.425358
0.000434982
-0.425657
0.00123493
-0.556065
0.000349897
-0.0955153
-0.658025
-0.583868
-0.162849
-0.678377
-0.424764
-0.000830511
-0.425461
-8.1523e-05
0.179382
0.513364
0.515531
0.173888
0.508076
-0.00405213
0.403439
0.00595124
0.419388
0.421548
-0.000896896
0.421216
-0.00334911
0.421624
-0.00429817
0.422291
-0.00456021
-0.424525
-0.00163323
-0.424127
-0.00248578
0.422972
-0.00439324
-0.423597
-0.00328458
-0.00393623
0.208105
0.516499
0.529561
-0.250831
0.481714
-0.343872
0.277011
0.108771
0.136096
0.135958
0.444809
-0.127436
0.317142
-0.188443
0.198129
0.505894
-0.23295
0.202336
-0.227571
0.156662
-0.209341
0.227444
-0.216526
0.253266
-0.136052
0.278479
-0.213458
-0.47367
0.00441472
-0.274914
-0.0970578
-0.267951
0.0853599
-0.304595
0.192199
-0.248056
0.142199
-0.263286
-0.426014
0.000792007
-0.51476
-0.0400705
-0.105063
-0.715812
-0.688581
-0.492832
-0.399003
-0.425429
-0.000862865
-0.426236
0.000140712
0.179718
0.507534
0.506806
-0.0172691
0.521293
-0.00482214
0.414213
0.419988
-0.00149698
0.420848
-0.00420957
0.421776
-0.00522598
0.422669
-0.0054535
-0.425206
-0.00185632
-0.424789
-0.00290199
0.423488
-0.00521182
-0.424207
-0.00386716
-0.0046552
0.212534
0.502093
0.491263
0.133704
0.483969
-0.398462
0.379796
0.182444
-0.115349
0.296438
0.0171264
-0.0030235
0.491791
-0.204125
0.178891
-0.183722
0.207041
-0.161077
0.23062
-0.12763
0.245032
7.48878e-05
-6.11871e-05
6.43156e-06
-2.01508e-05
-0.190801
-0.379927
0.0041303
-0.193684
-0.0748454
-0.188975
0.0716937
-0.234089
9.53008e-05
0.000135514
-0.00015594
-0.510883
-0.00308466
-0.401814
-0.326838
-0.119658
-0.246265
-0.349889
-0.275346
-0.337144
-0.225982
-0.363823
-0.426252
-0.000847001
-0.499432
-0.011311
0.0244372
0.499495
0.514702
-0.0224166
0.538887
0.418383
-0.00566691
0.420583
-0.00640968
0.422081
-0.00672406
0.42316
-0.006533
-0.42602
-0.0020881
-0.425552
-0.00337006
0.424104
-0.00615583
-0.424911
-0.00450816
-0.00546169
0.0692573
0.55571
0.568327
0.156846
0.509567
-0.0614313
0.325878
-0.0864541
0.255263
-0.0258756
0.231744
0.362458
0.0351368
0.430778
-9.5381e-06
9.36021e-05
-0.000145265
-4.60662e-05
5.23619e-05
1.34618e-07
-0.154085
-0.300687
0.00312343
-0.125114
-0.0618784
-0.123973
1.01719e-05
0.000540303
-0.000455183
-2.49998e-05
0.00011444
0.00130401
0.00363808
-0.00493193
0.16447
-0.569368
-0.408633
-0.30314
-0.322095
-0.247649
-0.315476
-0.207151
-0.310757
-0.494358
-0.0059208
-0.477788
-0.102891
0.0432889
0.491343
0.535574
0.54282
-0.00959967
0.498823
0.0375874
0.451361
0.0407382
0.423186
0.0216418
-0.487128
-0.00931805
-0.451293
-0.0392053
0.413278
0.00375255
0.421769
-0.0139535
-0.0340315
0.315115
0.39744
0.100711
0.347424
-0.0221336
0.261557
0.256946
0.289914
0.0331717
0.0986368
0.23065
0.110111
0.353838
-1.36118e-05
-7.93684e-05
8.34398e-05
9.71587e-05
4.87968e-05
-0.000103999
0.000106542
-2.42914e-06
-0.132813
-0.229753
-1.39161e-06
0.000516694
-7.70798e-05
8.7501e-05
0.00163013
0.000852291
-0.00117844
0.000977139
0.00265953
-0.423041
-0.288732
-0.284006
-0.285739
-0.240816
-0.281811
-0.182706
-0.260864
-0.489685
0.00597582
-0.175496
-0.350436
0.106406
0.495049
0.63238
0.485379
0.184589
0.432053
0.0940645
0.406674
0.047021
-0.550904
0.0519007
-0.43251
-0.157599
0.39705
0.0133764
0.401725
-0.0186292
-0.0648161
0.176548
0.321603
0.0620947
0.263195
0.135663
0.21992
0.190651
0.27581
0.12803
0.238282
0.207109
0.274759
5.35213e-05
-0.000556347
0.000489212
8.94082e-05
-7.16129e-05
0.000137878
1.74351e-05
-0.000125814
0.000126677
-3.30565e-06
-0.00160442
-0.00480939
0.0064673
0.00188351
0.000714563
-0.00096796
-7.31962e-06
0.000446925
-9.83861e-05
6.00601e-05
0.0012351
0.000594308
0.00074967
0.00190254
-0.30387
-0.268868
-0.270014
-0.256541
-0.217
-0.247516
-0.16607
-0.313295
-0.510531
-0.402429
-0.0562013
0.42772
0.274438
0.416055
0.196254
0.394942
0.115177
0.378477
0.0634868
-0.296146
0.0732557
-0.179538
-0.364019
-0.0897262
0.368877
0.0229755
0.365378
-0.0151303
-0.0634569
0.125419
0.258279
0.170351
0.240219
0.15382
0.247409
0.182684
0.22595
0.237732
0.219711
6.21454e-05
-0.000529081
0.000125101
-5.88679e-05
0.00014659
-2.49693e-06
-0.000127939
0.000128674
-4.06415e-06
-0.00211741
-0.000935773
0.00144871
-0.00123098
-0.0035163
0.00217156
0.00093248
-0.00122055
0.00143492
0.00051473
-8.25964e-06
0.000356793
-0.000103856
3.59578e-05
0.000950642
0.000393305
0.000577349
0.00131693
-0.303851
-0.235031
-0.249878
-0.223664
-0.420059
-0.197088
-0.355287
-0.120973
-0.212814
-0.0692169
0.311498
0.200672
0.346315
0.161437
0.348398
0.113095
0.341978
0.0699063
-0.29124
-0.101112
-0.303098
-0.0778683
0.333107
0.0318468
0.322835
-0.0048587
-0.0437199
0.162831
0.231208
0.1822
0.20658
0.223651
0.17826
-0.00259689
-0.000956913
0.0014366
4.95312e-05
-0.000453536
0.000134632
-4.69305e-05
0.000139026
-1.28782e-05
-0.000120267
0.000119752
-3.59158e-06
-0.00159315
-0.000573571
-0.000955183
-0.00251161
0.00240517
0.000681863
-0.000915484
0.00166802
0.000699355
0.00109972
0.000365663
-7.07082e-06
0.000259999
-0.00010053
1.61868e-05
0.000732013
0.000238622
0.000450518
0.000859335
-0.289876
-0.195033
-0.31411
-0.172854
-0.283403
-0.15168
-0.230475
-0.122146
0.268684
0.155639
0.29704
0.133081
0.306626
0.103509
0.305408
0.0711244
-0.242936
-0.0886506
-0.264762
-0.0560428
0.297548
0.0397066
0.28456
0.00812965
-0.0239221
-0.00335949
-0.00179782
0.00256054
-0.00193129
-0.000618747
3.31844e-05
-0.000352106
0.000129346
-3.72917e-05
0.000123222
-1.63966e-05
-0.000105336
0.000105082
-3.38656e-06
-0.00120617
-0.000322588
-0.000749778
-0.00172866
0.00260693
0.000961096
-0.00116289
0.00185402
0.000495863
0.00129438
0.000504659
0.000849217
0.000248447
-5.05094e-06
0.000164504
-9.24057e-05
3.21607e-06
0.000568587
0.000120441
0.000352923
0.000501359
-0.00443951
-0.00304164
0.00412176
-0.00250888
-0.00122011
-0.00143352
-0.00039132
1.90503e-05
-0.000241848
0.000114407
-2.85516e-05
0.000100759
-1.21266e-05
-7.91787e-05
7.5792e-05
-0.000917463
-0.000154866
-0.000590289
-0.00111932
0.00256897
0.000145409
-0.000107442
0.00204712
0.000767971
0.00143348
0.000356776
0.00100292
0.000350941
0.000653838
0.000163285
-2.85578e-06
7.49328e-05
-7.59627e-05
0.000436943
3.62468e-05
0.000276913
0.000221589
-0.00574304
-0.00497831
0.00628112
-0.00340477
-0.00214574
-0.00186103
-0.000792557
-0.00107337
-0.00023539
9.33236e-06
-0.000136843
9.10992e-05
-1.89639e-05
6.36654e-05
-0.000697462
-4.7634e-05
-0.000466633
-0.000643359
0.000829251
-0.00662292
0.00836262
0.00203487
0.000157661
0.00160952
0.000591896
0.00111289
0.000246794
0.000779483
0.000225177
0.000503832
9.65149e-05
-1.03e-06
0.000325835
-1.29111e-05
-0.0078008
-0.0118302
0.0138884
-0.0045814
-0.0038021
-0.00256764
-0.00143901
-0.00137122
-0.000494587
-0.000795257
-0.000137588
2.39689e-06
-4.82046e-05
4.47014e-05
-0.000529381
1.52473e-05
-0.000364454
-0.000276509
-0.000244985
-0.00288114
0.00395534
0.000583717
-0.00517179
0.00161905
0.000148149
0.0012745
0.000430266
0.000862207
0.000164165
0.000600848
0.000127981
0.000374858
4.76471e-05
0.000207648
-0.000220559
-0.00668268
0.00453981
-0.00565548
-0.00650449
-0.00990577
-0.00360469
-0.00276723
-0.00191027
-0.000899956
-0.00100912
-0.000280553
-0.000592252
-7.47196e-05
-3.50324e-06
-0.000385382
3.63504e-05
-0.00048048
-0.000165186
0.000400699
-0.000271565
-0.00202587
0.000392783
-0.00394555
0.00128786
0.00013479
0.00100593
0.000286395
0.000669959
9.51805e-05
0.000453944
4.86541e-05
0.000255295
-0.00628179
-0.00101997
0.000620326
-0.00559148
0.00363125
-0.00543712
-0.00807
-0.00281635
-0.00186032
-0.00138593
-0.000523148
-0.000730348
-0.000142136
-0.000430303
-2.97994e-05
-0.000243661
0.000280012
-0.000466272
4.74974e-05
-6.17138e-05
-0.000414852
-2.19085e-05
-0.000278521
-0.00135456
0.000248955
-0.00290666
0.00102025
0.000120597
0.000787785
0.000168359
0.000504586
4.47089e-05
0.000303949
-0.00465468
0.00833627
-0.0099623
-0.00531578
-0.00129639
-0.00466224
0.00286692
-0.00451712
-0.00636692
-0.00216467
-0.00109148
-0.000978395
-0.000275223
-0.000519196
-5.28413e-05
-0.00027346
-0.00028204
0.000728854
-0.000913098
-0.00040054
3.31801e-05
-0.000351992
5.15412e-05
-0.000271014
-0.000834607
0.000139952
-0.00202648
0.000806477
0.000102085
0.000605584
6.70729e-05
0.000348658
-0.00294277
0.00703375
-0.00874882
-0.00386595
0.00688916
-0.00448332
-0.00148183
-0.00386406
0.00221685
-0.0037706
-0.0047483
-0.00160714
-0.000474012
-0.00066891
-0.000125673
-0.000326302
2.57113e-06
0.00100962
-0.00129422
-0.000237731
0.000566027
-0.000340761
2.19598e-05
-0.000294382
7.49014e-05
-0.000253147
-0.000441414
5.49628e-05
-0.00127516
0.000640993
6.69354e-05
0.000415731
-0.00145867
0.00434961
-0.00583539
-0.00236695
0.00553185
-0.00318453
0.00559609
-0.00379834
-0.00154801
-0.00319595
0.00168807
-0.0031448
-0.00319209
-0.00111743
-4.02285e-05
-0.000452002
0.000294651
0.00103433
-0.0013264
2.08235e-06
0.000769795
-0.000198806
0.000424038
-0.000288213
1.57805e-05
-0.000242792
6.44488e-05
-0.000227034
-0.000159297
-2.49388e-05
-0.000609425
0.000482666
-5.66914e-06
0.00490491
-0.00635851
-0.00119383
0.00317598
-0.00189379
0.00423314
-0.00263638
0.00443543
-0.00323866
-0.00154957
-0.00261839
0.00122045
-0.00261968
-0.00166474
-0.00049218
0.000486267
0.000761618
-0.000953212
0.000247405
0.000789009
1.66697e-06
0.000569328
-0.000165214
0.00030102
-0.000240335
1.34039e-05
-0.000198798
3.60559e-05
-0.000190536
6.43748e-06
-0.000126759
0.00140309
0.00474754
-0.00615674
-5.59973e-06
0.00371584
-0.000976315
0.00225826
-0.00150835
0.00310232
-0.00216116
0.00339057
-0.00283944
-0.00139554
-0.00208143
0.000768033
-0.00215664
0.000494507
6.77641e-06
-1.49852e-05
0.0004176
0.000591428
0.000206654
0.000583999
1.32686e-06
0.000402765
-0.000136571
0.000197138
-0.000198099
1.28219e-05
-0.000159377
4.70528e-06
-0.000120322
0.00278379
0.0040523
-0.00543357
0.00115509
0.00358697
-4.19578e-06
0.00274295
-0.000798731
0.001548
-0.00120006
0.00210755
-0.00177682
0.00238141
-0.00256107
-0.000999402
-0.00138875
0.000254659
-0.000212262
0.000452109
0.000423945
4.42333e-07
0.000354458
0.00044364
0.000171602
0.000413716
1.05757e-06
0.000265209
-0.000111434
0.000110274