/*--------------------------------*- C++ -*----------------------------------*\
  =========                 |
  \\      /  F ield         | OpenFOAM: The Open Source CFD Toolbox
   \\    /   O peration     | Website:  https://openfoam.org
    \\  /    A nd           | Version:  8
     \\/     M anipulation  |
\*---------------------------------------------------------------------------*/
FoamFile
{
    version     2.0;
    format      ascii;
    class       surfaceScalarField;
    location    "0.038";
    object      phi;
}
// * * * * * * * * * * * * * * * * * * * * * * * * * * * * * * * * * * * * * //

dimensions      [0 3 -1 0 0 0 0];

internalField   nonuniform List<scalar> 
1107
(
0.000315987
-0.000643384
0.000633493
-0.000306097
0.000616968
-0.000300981
-2.96833e-05
0.000646651
0.000304967
0.000538558
-0.000106656
-0.000736868
-0.000968704
0.000630286
-9.76359e-05
0.000701446
0.000286064
-5.36035e-05
-1.49167e-05
-3.72627e-05
0.000683914
-3.30609e-05
1.43502e-05
-8.79454e-05
0.000180752
-0.000148822
-6.49909e-05
0.000300277
-0.000856393
-0.00126765
0.000599222
-0.000207407
0.000740057
0.000760912
-9.67283e-05
4.1692e-05
0.000814797
-9.55778e-05
3.58149e-06
-4.28347e-05
-1.13352e-05
0.000725606
0.000852884
2.99024e-05
-6.7989e-05
6.44768e-05
-0.000126759
-8.65403e-05
2.51503e-05
-4.86188e-05
0.000227369
-0.000140726
-0.000213401
0.00027784
-0.000115463
0.000296553
-0.000875105
-0.00151053
0.000539431
-0.000366365
0.00075818
0.000828641
-0.000185312
0.00089898
-0.000165916
5.2159e-06
-2.29003e-05
-6.11931e-06
-2.22218e-05
0.00086481
1.02962e-05
0.000755508
0.000945776
-0.000114785
0.00096296
-3.94055e-05
0.00095131
-2.39165e-05
3.55662e-05
3.53954e-05
-7.27363e-05
-4.91994e-05
1.36187e-05
-2.68421e-05
-8.23831e-05
-0.000131079
0.00032211
-0.000215107
-0.000320404
0.000397144
-0.000190497
0.000306669
-0.000784631
0.000459776
-0.00166363
-0.000570095
0.000743161
0.000880628
-0.00030776
0.000967986
-0.000253274
2.99727e-06
-1.22788e-05
-3.12204e-06
8.80643e-05
0.00091641
-5.31646e-05
0.000853216
-1.2323e-05
0.000765805
0.00102539
-0.000172192
0.00104955
-6.35648e-05
0.00103866
4.64623e-05
0.00099854
0.00012818
-0.000118293
0.000932159
0.000184675
5.74343e-05
-0.000104168
-3.56498e-05
2.75968e-05
-1.93619e-05
1.04114e-05
-9.6567e-06
-0.000129728
-0.000216459
-6.19076e-05
-0.000171988
0.0006909
-0.000801219
0.000901892
-0.000466491
0.00101013
-0.000361516
2.20771e-06
-4.07518e-06
-9.14323e-07
0.000865294
-6.71767e-05
0.000823714
-2.36621e-05
0.000753482
0.000822443
-0.00014717
0.000256886
0.0010784
-0.00024046
0.00110917
-9.43315e-05
0.00110075
5.48759e-05
0.0010568
0.000172138
0.000973373
0.000268097
4.5641e-05
-3.06105e-05
-7.6938e-05
2.44377e-05
-1.44465e-05
1.14673e-05
-6.39143e-06
4.27948e-06
-2.46893e-06
0.000876565
-0.000652156
0.00100406
-0.000489008
8.82695e-07
-6.78393e-07
-3.16291e-08
0.000333773
0.000669798
-0.000181129
0.000790393
-7.2269e-05
0.000785454
-2.89167e-05
0.00072982
0.000826507
0.000403752
0.000622272
0.000538008
0.000388107
-0.00129481
0.00152898
0.00108263
-0.000319029
0.00112199
-0.000133698
0.00112064
5.6225e-05
0.00107544
0.000217342
0.00097341
0.000370128
-3.58569e-05
-5.57746e-05
6.1021e-05
-1.92648e-05
-3.10386e-05
-9.09256e-06
-1.65637e-05
-3.38062e-06
-8.18086e-06
-6.70854e-07
-3.38815e-06
-7.02486e-07
0.000988451
0.000345013
-0.000945357
0.000371425
-0.000996441
0.000687942
-7.86787e-05
0.000739008
-2.58236e-05
0.000700903
0.000792264
0.000584899
0.000546841
0.000783431
0.000411494
0.00166433
0.000482659
0.000917286
-5.77743e-05
-9.53053e-05
9.7305e-05
-3.12789e-05
-5.7534e-05
-1.47643e-05
-3.30783e-05
-5.466e-06
-1.74791e-05
-1.09443e-06
-7.75971e-06
-1.79692e-06
0.00010217
0.000299942
-5.70991e-05
0.000227552
-0.000801484
0.000357775
-0.000666273
0.000680834
-2.05042e-05
0.000675079
0.000414729
0.0001701
-4.442e-05
-0.00012506
7.41749e-05
-2.44215e-05
-7.75325e-05
-1.17532e-05
-4.57466e-05
-4.472e-06
-2.47604e-05
-9.69852e-07
-1.12619e-05
-2.76677e-06
0.000247013
0.000202009
-0.00014908
0.000200913
-3.04599e-05
0.000136125
-0.000579835
0.000342985
-0.000328424
0.000654575
0.00029621
0.000365532
-1.4555e-05
-0.000133783
2.32779e-05
-8.25553e-06
-8.3832e-05
-4.08878e-06
-4.99133e-05
-1.64177e-06
-2.72074e-05
-4.01262e-07
-1.25024e-05
-3.16803e-06
0.000150072
0.000135522
-8.35853e-05
0.000128523
-7.66893e-05
0.000120764
-1.50983e-05
6.9963e-05
-0.000306813
0.000326151
0.00020041
0.000245872
1.41209e-05
-0.000122048
-2.58563e-05
7.18086e-06
-7.6892e-05
3.20235e-06
-4.59348e-05
1.13069e-06
-2.51357e-05
1.82393e-07
-1.15541e-05
-2.98564e-06
0.000129415
7.81867e-05
-7.20795e-05
8.54038e-05
-4.04665e-05
7.38847e-05
-2.98102e-05
5.925e-05
-4.38526e-06
1.9338e-05
0.000118856
0.000210969
-8.84729e-05
5.94216e-05
0.000147907
1.63108e-05
-3.58728e-05
-0.000102486
7.62919e-06
-6.82104e-05
3.26423e-06
-4.15698e-05
1.17777e-06
-2.30492e-05
2.26889e-07
-1.06032e-05
-2.75875e-06
3.81511e-05
-4.84374e-05
4.81968e-05
-3.48724e-05
4.87351e-05
-1.5317e-05
3.52858e-05
-5.84604e-06
1.49528e-05
-5.16136e-05
2.39123e-05
8.71229e-05
-3.16432e-05
5.72533e-05
-6.718e-05
-1.24656e-05
-4.22268e-05
-2.79538e-06
-2.02734e-05
-5.55413e-06
1.44819e-05
-2.79443e-05
2.29263e-05
-2.31669e-05
2.70063e-05
-1.31436e-05
2.30532e-05
-3.08432e-06
9.10672e-06
5.13569e-06
-2.544e-05
4.42167e-05
-2.11765e-06
6.92249e-06
7.1908e-06
-1.19957e-05
-1.28775e-05
5.55875e-05
-6.29833e-05
-1.84317e-05
-1.63914e-06
-8.14043e-06
1.49153e-05
2.48455e-06
-1.34427e-05
8.20819e-06
-1.32262e-05
1.2545e-05
-8.70561e-06
1.26159e-05
-2.70633e-06
6.0224e-06
1.42203e-06
4.24985e-06
-7.78953e-06
-5.38031e-07
3.39438e-06
4.06617e-06
-1.87735e-06
8.3663e-06
-1.66363e-05
1.01474e-05
-2.86781e-06
-4.51346e-07
1.68001e-06
-1.59485e-06
-4.06103e-06
1.00106e-06
-6.23561e-06
4.24512e-06
-4.92637e-06
5.74477e-06
-1.83452e-06
3.31607e-06
3.30354e-06
1.63902e-06
-3.52053e-06
1.57445e-06
2.13737e-06
8.77722e-08
1.42926e-06
-7.50438e-07
3.00702e-06
6.10974e-06
-2.65099e-06
4.75667e-06
-2.36164e-05
2.15107e-05
-2.03278e-06
2.01146e-06
-2.84649e-06
-2.08482e-06
3.86229e-08
-1.28982e-06
-1.77015e-06
2.99094e-07
-2.2896e-06
1.84737e-06
-1.02897e-06
1.48155e-06
3.63874e-06
-3.22513e-07
-1.26823e-08
2.52481e-06
6.88653e-07
1.27149e-06
9.53654e-07
2.23342e-07
4.55477e-07
-2.01392e-07
5.57427e-07
-5.75587e-07
5.33229e-06
-1.14239e-06
1.63494e-06
-2.52532e-06
-1.32127e-06
1.24792e-06
-1.38782e-06
1.36616e-07
-8.66771e-07
-6.04289e-07
3.22126e-08
-4.74441e-07
4.5257e-07
2.56639e-06
-2.16047e-06
3.23282e-06
2.52288e-06
-3.20545e-07
1.7145e-06
2.45639e-07
8.43926e-07
3.33072e-07
1.72974e-07
8.11103e-08
-1.81615e-08
-1.58209e-06
-8.90324e-07
1.33002e-06
-6.25534e-07
9.39216e-07
-7.94975e-07
6.55084e-07
-8.21652e-07
9.14981e-08
-4.61435e-07
-1.10644e-07
-2.18706e-08
1.42818e-06
-1.93283e-06
3.07104e-06
1.64206e-06
-1.27963e-06
1.60309e-06
-2.0913e-07
1.02652e-06
6.30467e-08
4.43278e-07
6.27691e-08
6.29493e-08
-2.3107e-06
-1.30427e-06
2.03288e-06
-9.84861e-07
-5.30983e-07
-3.20379e-07
4.64623e-07
-4.31141e-07
2.64574e-07
-3.99594e-07
2.96584e-08
-1.32514e-07
2.03835e-06
1.20306e-06
-1.81323e-06
7.97852e-07
-1.08863e-06
9.69956e-07
-6.46491e-07
9.14261e-07
-9.68688e-08
5.01364e-07
4.96227e-09
1.25718e-07
-2.7475e-06
-7.08805e-07
1.14561e-06
-1.53221e-06
-7.5691e-07
-5.759e-07
-2.75458e-07
-1.45865e-07
1.7935e-07
-1.93751e-07
5.87332e-08
-1.02855e-07
-2.6632e-06
1.63885e-07
-2.48181e-07
1.20461e-06
-1.82946e-06
1.28203e-06
7.18867e-07
4.1382e-07
-5.32489e-07
5.1975e-07
-2.51979e-07
4.3001e-07
-2.55148e-08
1.3068e-07
-1.8384e-06
-4.02614e-07
-9.52719e-07
-3.80089e-07
-3.07999e-07
-1.13321e-07
-5.15356e-08
3.71369e-08
-4.41204e-08
-1.77469e-06
1.00173e-07
7.11938e-07
7.59248e-07
3.73441e-07
1.91421e-07
-2.0416e-07
2.31538e-07
-5.3506e-08
1.05164e-07
-1.15505e-06
-2.00283e-07
-5.38354e-07
-1.49732e-07
-1.38558e-07
-2.62958e-08
-6.98199e-09
-1.1084e-06
5.35207e-08
3.62788e-07
4.11212e-07
1.5365e-07
6.91958e-08
-4.18189e-08
5.16578e-08
-6.59045e-07
-7.95919e-08
-2.54659e-07
-3.36298e-08
-3.32774e-08
-6.28985e-07
2.34606e-08
1.45015e-07
1.87064e-07
3.57801e-08
9.83838e-09
-3.15615e-07
-1.86359e-08
-6.69067e-08
-2.98746e-07
6.59226e-09
3.3333e-08
4.56182e-08
-8.55431e-08
-7.89511e-08
0.000597088
-0.00138172
-0.00106655
0.000323136
-0.000539595
0.000860363
-0.000537226
0.000539959
0.00130405
-0.000764087
0.00111355
-0.00026817
0.00156961
-0.00183778
0.000503069
-0.00029815
-0.00139404
0.000629954
0.000139318
-0.000311306
-0.000400277
4.44258e-05
-0.000121364
-0.00026688
0.000331179
-0.000731456
0.00117611
-0.000844932
0.000638885
-0.000755156
0.00207273
-0.00144278
0.000234946
0.00130842
-0.00107347
0.00101027
0.00035811
0.00101749
-0.00177265
-0.000425285
-6.03429e-05
0.000230115
-0.000290458
-3.67651e-05
-0.000768221
-6.77749e-05
-0.000700446
0.00137118
-0.00143895
0.000526243
-0.0012464
0.00142483
-0.00185012
0.000351359
0.000885016
-0.000533657
-0.00124313
0.000754118
-0.0013752
0.00105617
-0.000621077
0.000984761
-0.00223116
-0.000865354
0.000860089
0.000804237
0.00177737
-0.000411282
0.00099618
-0.0014877
0.001354
-0.000431536
-0.00115789
0.000746609
-0.000787763
-0.0013189
0.00137513
3.51023e-05
-0.00128809
0.000500325
-0.00107075
0.000304381
-0.000193153
0.000132296
-0.00032545
-0.000568149
0.000279552
-0.000847701
-0.0011594
0.000198785
-0.00135818
-0.00203238
0.00113631
-0.00200166
-0.000602649
-1.84283e-05
-0.000658992
0.000227455
-0.00067742
-3.12997e-05
-0.00200108
-0.00203296
-0.000898194
0.00170243
-0.000114763
0.000881418
0.000284005
0.00149337
0.00198644
0.00166347
-2.06737e-05
0.000902091
-0.00100735
0.000986681
-0.000260745
-0.000573749
0.000608851
-0.000346293
-0.000960375
0.000699629
-0.00046005
-0.000788032
0.000327983
-0.000483652
0.000125199
-0.000251275
8.04907e-05
-0.000331766
-0.00076721
3.34715e-05
-0.000800682
-0.00132471
-0.000353014
-0.000971698
-0.00235409
0.000893301
-0.00123959
0.000215881
-0.00181708
-0.00143392
0.000194327
0.000923515
-0.00274059
-0.00143058
0.000544763
0.00144167
0.00144685
-0.00100492
0.00137045
0.000658549
0.00210022
0.000107178
0.00133968
0.00109386
5.50986e-05
0.00103876
0.000754728
0.000233472
0.000521256
0.000561454
0.000686654
-0.000747268
-0.000308488
9.34033e-06
-0.000317828
-0.000791341
-0.000349545
-0.000441797
-0.00132124
-0.000425344
-0.000895899
-0.00185592
0.00201705
-0.00182272
-0.000723544
0.00173389
-0.00248115
-8.88359e-05
0.00128622
-0.00200977
-0.000569699
-0.000612593
0.000858465
0.000757861
-0.0012033
0.00196116
0.000896923
0.0022366
0.00141576
0.000820836
0.00245452
0.00297578
-0.00063392
0.00205091
-0.00141699
0.00311507
-0.000139294
-0.000343684
0.00056333
-0.00113303
-9.43044e-05
-0.00024938
-0.000536101
-0.000119522
-0.000416579
-0.00101542
-0.000452091
0.00181345
0.000237457
-0.00172461
-0.000285153
-0.000725732
0.000963189
-0.000971974
-0.000161054
0.000646256
-0.000931409
-0.000325718
-0.00116872
0.000442988
-0.000321729
0.000532697
0.000536736
2.61733e-05
-0.000598928
0.000572755
-0.00114255
-0.000121988
0.000345544
-0.000223557
-0.000720916
-0.000693804
0.00123054
0.00126736
0.00208819
-0.000341364
-0.000801182
-0.00175835
0.0012144
0.000873788
0.00107511
-0.000683243
-0.000285253
0.000393117
-0.000554171
-0.000672673
0.000220582
-0.000279556
-0.00012564
-0.000159613
-0.000542219
-0.000321637
-0.00125214
0.000320728
-0.000288947
-0.000603304
0.000314357
-0.000160316
-0.000500532
-5.3639e-05
0.000826251
-0.000505523
-0.000669791
0.000509475
-9.70363e-05
0.000364866
-1.93218e-05
0.00026783
-0.000217012
0.00019769
1.69305e-05
0.000142975
-0.000159905
-0.000200081
-0.000423638
-0.000256076
-0.000167561
-0.000111474
0.000259382
0.000421223
-0.000146052
0.000567275
0.00108449
0.000313269
-0.000569345
-0.000407647
-0.00120883
0.000469598
0.00061489
-0.000660143
-0.000548687
0.00134339
-2.16727e-05
0.000108796
0.000237709
0.000113443
-0.000273056
-1.09571e-05
-0.000463363
0.000183807
-0.000517002
-0.00010069
-0.000172365
-0.000422327
-0.000238521
0.000478932
3.0543e-05
-0.000793289
0.000287766
-0.000528111
1.11088e-05
-0.000240345
-0.00029755
0.000328093
-0.000343081
4.55307e-05
-7.52512e-05
-0.00023611
0.000160859
-3.84206e-05
-0.000130466
9.20456e-05
1.25083e-05
5.37935e-06
2.41324e-05
-2.95118e-05
1.25702e-05
-2.37217e-05
4.78542e-05
6.8981e-05
-9.27028e-05
8.14894e-05
-4.62261e-05
-4.64767e-05
-0.000206131
-2.37901e-05
-5.72161e-06
-7.02669e-05
-1.77172e-05
-0.000100708
-0.000105423
-0.00026827
-0.000102504
-0.000165766
-0.000671849
-9.31313e-05
0.00033084
0.000474144
0.00108903
-0.000437586
-0.000234263
0.000986272
0.000102761
1.78232e-05
2.63935e-05
0.000126619
4.51928e-05
8.1426e-05
0.000376033
5.38193e-05
-0.000226185
1.33607e-05
-7.30868e-05
-0.000153098
-0.000311607
-0.000300499
-0.000233222
-6.72763e-05
-0.000473567
-0.000145474
0.000189903
-2.90438e-05
-0.000235434
8.996e-05
5.28047e-05
2.86847e-05
0.00014485
0.000115806
4.04949e-05
7.35928e-06
6.91796e-05
1.75067e-05
-4.82039e-05
-2.2063e-05
-0.000153626
-2.24613e-05
4.74403e-06
-4.45243e-05
-3.04551e-06
1.45078e-05
4.07425e-07
4.09013e-05
-0.000101187
-5.24393e-05
-0.000266953
-0.000145748
-0.000121206
-0.000380011
0.000336439
3.95937e-05
0.0004392
5.91895e-05
8.26066e-06
3.26406e-05
8.96866e-05
0.00012928
9.60226e-05
-2.6843e-05
0.000211829
-0.000234513
8.1415e-05
-0.000301789
-1.84317e-05
-5.33228e-06
-7.64047e-06
8.0479e-06
-5.96045e-06
-3.94124e-05
-5.11183e-06
-9.18517e-05
-1.23268e-05
9.28126e-06
-1.74386e-05
5.76071e-06
1.04289e-05
-2.38095e-06
4.30695e-05
-7.28141e-05
-1.90376e-05
-0.00019402
-0.00013483
3.20952e-05
1.09743e-05
0.000161375
2.65455e-05
-7.62975e-06
5.24883e-06
4.74761e-06
-7.59408e-06
-1.21284e-06
-8.8426e-06
-7.22161e-07
-6.87191e-06
-3.24746e-06
-2.95559e-05
1.21173e-05
-4.85935e-05
-1.83253e-06
7.59324e-06
1.02848e-05
7.58059e-06
1.25174e-05
-7.26857e-06
2.34917e-05
3.06621e-05
-7.17037e-06
-5.72075e-05
8.61401e-06
-2.27795e-07
-8.6148e-06
-7.49637e-06
-2.33091e-06
-4.541e-06
-1.09457e-05
-1.91742e-06
-6.45842e-06
2.27597e-06
8.00885e-06
1.089e-05
-3.99556e-06
7.22841e-06
3.58503e-06
1.15939e-05
-1.75814e-06
-5.73823e-06
-8.92852e-06
-9.98205e-06
1.05353e-06
9.07918e-07
7.80825e-07
6.44758e-06
3.85187e-06
-7.44259e-06
-3.50311e-06
-1.31808e-05
-4.42553e-06
-7.92866e-06
5.16022e-07
5.93156e-06
1.21099e-05
1.30178e-05
-1.18906e-05
-1.29022e-06
1.08371e-05
2.18073e-06
2.03863e-06
7.97019e-06
-6.78303e-06
-8.07326e-06
-8.32144e-06
6.14072e-06
)
;

boundaryField
{
    movingWall
    {
        type            calculated;
        value           uniform 0;
    }
    fixedWalls
    {
        type            calculated;
        value           uniform 0;
    }
    frontAndBack
    {
        type            empty;
        value           nonuniform List<scalar> 0();
    }
    defaultFaces
    {
        type            empty;
        value           nonuniform List<scalar> 0();
    }
}


// ************************************************************************* //
