/*--------------------------------*- C++ -*----------------------------------*\
  =========                 |
  \\      /  F ield         | OpenFOAM: The Open Source CFD Toolbox
   \\    /   O peration     | Website:  https://openfoam.org
    \\  /    A nd           | Version:  8
     \\/     M anipulation  |
\*---------------------------------------------------------------------------*/
FoamFile
{
    version     2.0;
    format      ascii;
    class       surfaceScalarField;
    location    "0.038";
    object      phi;
}
// * * * * * * * * * * * * * * * * * * * * * * * * * * * * * * * * * * * * * //

dimensions      [0 3 -1 0 0 0 0];

internalField   nonuniform List<scalar> 
662
(
-2.02608e-05
1.60991e-05
4.16156e-06
2.07181e-05
-4.0979e-05
-8.78438e-05
3.58428e-05
6.81e-05
-1.73337e-05
2.14952e-05
-0.000151736
8.46103e-05
1.03922e-05
-5.13712e-05
9.34964e-05
-7.49872e-05
-2.25414e-05
4.40366e-05
-0.000180503
3.91591e-05
1.72212e-06
-5.30933e-05
2.19287e-06
-0.000121529
-4.67568e-06
0.000124012
-3.41546e-05
3.63474e-05
0.000163943
-9.29881e-05
5.58272e-05
-1.17906e-05
-0.000183478
4.69776e-06
-7.6734e-07
-5.23259e-05
1.15146e-06
-0.000116685
-5.99545e-06
-3.30031e-05
5.75515e-05
-1.72425e-06
0.000195578
-4.34254e-05
-0.000181488
-2.75818e-06
-2.22628e-06
-5.00997e-05
3.65026e-06
-0.000103088
-1.7248e-05
-2.93529e-05
5.72915e-05
2.60032e-07
0.000198286
-4.43209e-06
-1.5176e-06
0.000123012
-0.000123216
1.72159e-06
3.45074e-05
-3.6025e-05
-0.000177052
-6.66224e-06
-4.09612e-05
-9.13849e-06
-2.18556e-05
-1.91055e-05
-1.71157e-05
-4.73991e-06
4.82183e-06
-8.79023e-05
-2.00072e-05
-2.45311e-05
-0.000141431
-0.000756553
0.000897984
6.05612e-05
-3.26978e-06
8.97193e-05
-2.91581e-05
-5.17116e-05
0.000198994
-4.47846e-07
-4.24398e-07
0.000120243
3.19429e-06
3.4083e-05
-0.000152837
-3.33531e-05
-9.60349e-05
-7.59077e-05
-4.38824e-05
-6.92683e-05
2.20917e-05
-2.68317e-05
3.44586e-06
-7.66199e-05
-1.47283e-05
-2.10852e-05
-0.000390404
0.000705303
-0.00107145
-0.00095385
0.00185183
0.000216439
-2.07154e-05
0.000293238
-0.000105957
-0.000148877
-3.58115e-06
0.000106648
1.71756e-05
3.05019e-05
-0.000116093
9.43025e-05
2.72018e-05
-5.40335e-05
-2.75352e-07
-3.89852e-07
-7.59547e-05
-2.13606e-05
0.00135464
-0.00160319
-0.000107399
0.00195923
-4.15288e-06
9.26279e-05
1.81731e-05
2.6349e-05
-0.00019739
0.000108499
-6.57585e-05
1.17251e-05
0.00161547
-0.000368225
0.00199279
-3.35561e-05
-2.84868e-06
7.99117e-05
1.55649e-05
2.35003e-05
-6.80781e-05
2.31961e-06
-0.000228132
4.24668e-05
0.00199088
1.9043e-06
0.00171076
-0.000128846
-5.42905e-06
2.96468e-05
5.5694e-05
1.80713e-05
-6.75019e-05
-5.76254e-07
-0.000232301
6.48915e-06
-2.02205e-08
-0.00011207
0.000108641
3.4487e-06
-3.14864e-05
3.14662e-05
0.00196097
2.9914e-05
0.00173098
-1.832e-05
-0.00180567
0.000950124
0.000855545
-6.80625e-05
5.60619e-07
0.00191683
4.41401e-05
0.00187807
3.87643e-05
7.23973e-05
0.000156692
0.000793432
9.92496e-05
5.74427e-05
3.11871e-05
-0.000233012
1.34134e-07
-4.1165e-07
-0.00011281
1.15194e-06
-3.18981e-05
0.00171141
4.94893e-05
-0.000172275
-7.87423e-06
4.15617e-05
0.000138588
-0.00136365
0.000783509
0.00143569
-0.00024405
1.15985e-05
0.0016709
8.46511e-05
0.00158361
0.000126054
0.000292352
0.000415938
0.001161
0.000321356
0.000152024
0.000108493
-8.53828e-08
-0.000111716
-1.00845e-06
-3.19834e-05
-0.000179775
-1.51404e-06
9.01393e-06
-5.33628e-05
4.54886e-05
4.7391e-07
-0.000109622
-2.56771e-06
-3.15095e-05
-0.000164614
4.64545e-06
-1.98064e-05
-5.48768e-05
1.65473e-06
-9.94619e-05
-1.18151e-05
-2.98548e-05
-0.000142735
7.20338e-06
-2.90829e-05
-5.02314e-05
7.86949e-06
-4.25145e-05
-6.4817e-05
-2.19853e-05
-0.00012776
4.23117e-06
-1.92061e-05
-4.3028e-05
3.91347e-06
-2.01203e-05
-0.000111553
-3.87968e-05
-3.48833e-05
0.000500059
-0.000415449
-0.00013931
0.00020741
0.000360749
0.000132423
-0.000954153
0.000518651
0.000435502
-0.000536683
-0.00041747
-0.000665423
0.000370387
0.000295037
-0.000146772
-0.000747543
0.000210859
-0.000121268
-0.000626275
-0.000366629
0.000245361
0.000210013
-0.000625462
-0.000641535
0.000851548
-0.001059
4.1404e-05
-0.000667679
-0.0010176
-0.000586303
-0.000100645
-0.000567034
-0.000371305
-0.00047195
-0.000414359
0.000546781
-0.000797939
0.00123344
-5.36096e-05
0.000115397
0.00111804
0.000485784
0.000453793
9.89091e-05
0.000386875
0.000421768
-0.000126732
0.000520677
-0.000469808
0.000343076
-0.00061658
-0.000405721
-0.00016036
3.63474e-05
0.00021295
-0.000799253
-0.00080465
-0.00137168
-0.000794555
-5.79929e-05
-0.00131369
-0.000477945
-0.000535938
-0.000240782
0.000694576
0.000877261
0.00126414
0.00065115
0.000240978
0.00102316
0.000403642
0.000117036
0.00064462
0.000183835
0.000159241
0.000300871
3.6025e-05
0.000120665
-0.000915221
-0.00119303
-0.000917979
2.96252e-05
-0.00122265
-0.000553186
-0.000523561
-0.000169219
0.000820369
0.000853939
0.000815937
0.000440611
0.000204009
0.00129455
0.000302592
0.000506601
1.37549e-05
-0.000931734
-0.0012089
-0.000938396
-0.00127032
6.14192e-05
-0.000829303
-0.000441013
-0.000543568
-0.000482149
0.000779222
3.67155e-05
0.000778774
0.00130726
-1.27087e-05
0.00134397
0.000509795
0.000497087
-0.000329105
-0.000609291
-0.00115841
-0.000944471
-0.000213936
-0.000642644
-0.000390372
-0.000554099
0.000396031
-0.000609967
-0.000697832
0.000256819
-0.000301801
-0.000496877
-0.000240059
0.000916801
-0.000138027
0.000896086
0.00141935
-7.53794e-05
0.00128133
0.000514262
0.000438883
0.000307843
-0.000458708
0.000150866
-0.000302124
-0.000692496
-0.000135056
-0.000323653
0.000351626
-0.000427534
-0.000291018
-0.000845117
6.08892e-05
-0.000906006
-0.000631607
-0.000127302
-0.000300232
-0.00019657
-0.000102267
-0.000391701
8.99005e-05
-0.000240836
-0.000240449
-0.000150548
-0.000160228
-8.06075e-05
-0.000295284
-0.000133906
-0.000161378
0.00143953
-0.0015884
0.00200549
-0.000565963
0.000934037
-0.000669154
0.000854441
4.16456e-05
0.000748483
-0.00083992
-0.000830043
0.000871689
0.00134808
-6.67549e-05
0.000518037
0.000457056
0.000390301
0.000555572
-0.00139549
0.00139049
-0.000834913
0.000493824
-0.00062773
-0.000170171
-0.000461436
0.00010015
-0.000400382
0.000805856
-0.00126729
-0.00050265
-0.000437166
-0.000190563
-0.000394151
-0.000530379
9.32126e-05
2.37948e-05
-0.000554174
-0.000247863
9.73152e-05
-0.000328471
0.000489849
-0.000396636
-2.13606e-05
-0.002244
0.00167803
-0.000853512
0.00100888
-0.000739204
-0.000114308
0.000640655
0.00124312
-0.000371434
-0.000152369
0.000654612
-0.000136575
0.000283179
0.000405866
0.000269291
0.000518864
-1.96042e-05
-0.00049926
-8.75129e-05
-0.0007474
-0.000826717
-0.000307853
0.000304771
-0.00045714
-0.000442629
-0.000863829
-0.000403463
-0.00105439
-0.0010306
-0.000797615
-0.000755148
-8.50991e-05
-0.000945498
-0.000497879
-5.62945e-05
-0.000582978
-0.000256529
-0.000140107
-0.000312823
-3.14662e-05
-0.000731174
0.000616866
-0.000750778
0.00125752
0.00112868
-0.000290824
-0.000459954
0.000487153
-0.000777977
0.000490397
-0.000207218
3.32567e-05
0.000732355
-0.000245202
0.000233095
0.000298938
9.17196e-05
0.000340842
-0.000107747
3.29892e-05
0.000226149
-0.000192893
-0.00021648
-0.000183491
-0.000379771
0.000134569
-0.000121999
-0.0008235
-0.000877147
-0.000870657
-0.000442125
-0.000140854
-0.00126562
-0.000309375
-0.000450228
0.000184096
-0.00064405
0.00131277
0.00129445
-0.000440301
-0.000337676
-0.00108435
-0.00033821
-0.000675886
0.000165485
-7.37653e-05
-2.74076e-05
-0.000210899
0.000318646
-0.000184076
1.80713e-05
-4.54886e-05
-0.000926058
5.54005e-05
-0.000925924
-0.00122638
-3.9246e-05
-0.00117098
-0.000449076
-0.000488322
0.00127883
1.56205e-05
0.00132832
-0.0010215
-6.28521e-05
-0.00100588
-0.000666872
-0.000729724
0.00117198
0.000263707
0.00233298
-0.000912712
-1.32121e-05
-0.000901113
-0.00102419
-0.000146783
-0.00103741
-0.000489331
-0.000636114
0.00132285
5.4713e-06
0.0014075
-0.00113723
0.000131357
-0.00113176
-0.00074953
-0.000618173
0.00113718
-0.000844824
0.00140088
-0.000896774
-4.33941e-06
-0.00078828
0.00126112
0.000146384
0.00138717
0.000542346
-0.00180967
0.00102139
-0.000675335
0.00207622
-0.00165765
0.00110255
-8.11603e-05
0.0008636
-0.00086794
-0.00124372
0.000206312
-0.000380119
-0.000638682
-0.00043237
0.000633045
-0.00048666
-0.00120911
7.73484e-05
-0.000576067
-0.000647256
-0.000569908
-0.000302595
0.000844941
0.00177362
0.00116435
-6.1799e-05
0.000296413
-0.000842714
0.000356054
2.22711e-06
0.000779063
0.000994561
0.000697902
0.000442314
0.000255588
0.000380515
-0.000644851
0.000264733
-0.000348438
-0.000444185
-0.000179452
-0.000773571
0.000197503
-0.000417517
-0.000589114
-0.00039161
-0.00059305
0.000595277
0.000401511
-0.000489972
0.000141533
-0.000109457
-0.000634912
0.000217395
-3.96355e-05
-0.000309869
0.000200413
-5.4281e-05
0.00034723
-0.000221967
-8.04333e-05
-0.000411731
-0.000194335
-0.000340771
0.000146436
-0.000167236
8.68023e-05
3.31771e-05
-0.000380407
-2.19853e-05
3.48833e-05
)
;

boundaryField
{
    movingWall
    {
        type            calculated;
        value           uniform 0;
    }
    fixedWalls
    {
        type            calculated;
        value           uniform 0;
    }
    frontAndBack
    {
        type            empty;
        value           nonuniform List<scalar> 0();
    }
    defaultFaces
    {
        type            empty;
        value           nonuniform List<scalar> 0();
    }
}


// ************************************************************************* //
