/*--------------------------------*- C++ -*----------------------------------*\
  =========                 |
  \\      /  F ield         | OpenFOAM: The Open Source CFD Toolbox
   \\    /   O peration     | Website:  https://openfoam.org
    \\  /    A nd           | Version:  8
     \\/     M anipulation  |
\*---------------------------------------------------------------------------*/
FoamFile
{
    version     2.0;
    format      ascii;
    class       volVectorField;
    location    "0.038";
    object      U;
}
// * * * * * * * * * * * * * * * * * * * * * * * * * * * * * * * * * * * * * //

dimensions      [0 1 -1 0 0 0 0];

internalField   nonuniform List<vector> 
656
(
(0.743376 0.0565319 -9.65421e-25)
(0.92789 0.0140693 1.86661e-24)
(0.954787 -0.00127351 0)
(-0.0910747 0.118998 2.39982e-23)
(0.556747 0.0977244 1.12094e-23)
(0.841237 0.000939287 0)
(-0.0571795 0.0672309 -4.93955e-23)
(-0.014596 0.018847 9.85052e-24)
(0.968217 -0.000150871 0)
(-0.000505054 0.1386 -2.37867e-24)
(-0.00305094 0.193127 -7.83656e-23)
(-0.117738 0.172058 0)
(0.376011 0.139832 1.00523e-23)
(0.715006 0.00930356 0)
(0.890952 0.00127257 -1.70625e-22)
(0.906475 0.000579575 4.77793e-23)
(0.00104043 0.082344 9.71223e-24)
(0.00137438 0.0267222 0)
(0.971824 -7.68315e-05 -3.43273e-23)
(0.913501 0.000293892 -1.43695e-22)
(-0.0123889 0.0928578 7.71261e-23)
(-0.00523424 0.0628639 0)
(-0.0239232 0.125088 1.33397e-24)
(-0.0078993 0.242532 1.54018e-22)
(-0.136115 0.223439 -1.67692e-22)
(0.210346 0.180415 -2.26581e-23)
(0.577649 0.024578 0)
(0.80063 0.0063688 2.66385e-22)
(0.829326 0.00301972 -8.91412e-23)
(-0.00144235 0.0356609 0)
(-0.000151534 0.0114439 0)
(0.916752 0.000154282 5.1348e-23)
(0.973323 -4.77863e-05 -3.66553e-23)
(0.842669 0.00160198 1.95783e-22)
(0.849005 0.000797003 -5.18102e-23)
(0.853534 5.76245e-05 -1.08919e-22)
(-0.00677826 0.0608795 -1.05414e-22)
(-0.00280652 0.040919 1.70756e-23)
(-0.0137894 0.0824891 -1.88384e-22)
(-0.0408502 0.15852 -1.57732e-22)
(-0.0167166 0.282796 1.66534e-22)
(-0.143743 0.269543 -4.78343e-24)
(0.0686457 0.217903 4.55126e-22)
(0.433139 0.0473921 0)
(0.696448 0.0162114 0)
(0.739125 0.0079959 -3.6975e-22)
(-0.000821525 0.0230259 -5.40398e-24)
(-0.000128838 0.00732265 0)
(0.854446 -0.000879315 1.20207e-22)
(0.919175 2.68642e-05 -2.78207e-23)
(0.973934 -2.09603e-05 4.92979e-24)
(0.759333 0.00431845 0)
(0.769135 0.00215328 0)
(0.776097 0.000137222 -1.06698e-22)
(0.777639 -0.00236437 4.59918e-22)
(0.762988 -0.00601341 0)
(-0.0103721 0.0366021 2.00208e-22)
(-0.00502055 0.0257421 2.95245e-22)
(-0.00202802 0.0165208 -2.87618e-22)
(-0.0250207 0.104766 -1.85322e-22)
(-0.0193382 0.0489249 5.84975e-22)
(0.286743 0.0796267 -1.328e-22)
(0.578309 0.0319427 1.75106e-22)
(0.634843 0.0165171 -5.20698e-22)
(-0.000553665 0.00885034 4.539e-23)
(-6.72195e-05 0.00256294 6.09277e-23)
(0.844441 -0.00222954 -2.54797e-22)
(0.919724 -0.000144846 8.5488e-23)
(0.974599 1.27059e-05 5.48149e-24)
(0.72635 -0.0151616 -1.16478e-23)
(0.662093 0.00904454 0)
(0.675596 0.00459944 1.9334e-22)
(0.685367 0.00035523 2.0419e-22)
(0.687942 -0.00479992 -8.82736e-22)
(0.668825 -0.012485 2.27399e-22)
(-0.00839751 0.0139398 8.88782e-22)
(-0.0040535 0.00914522 -6.81231e-24)
(-0.00182778 0.00551203 0)
(-0.000643759 0.00295841 1.05812e-22)
(0.447568 0.0557442 0)
(0.516485 0.0302531 6.66013e-22)
(-8.95636e-05 0.00127659 -1.00174e-22)
(5.52685e-05 0.000242359 -3.0875e-23)
(0.604538 -0.0240618 4.71986e-22)
(0.819992 -0.00591126 1.49741e-22)
(0.914254 -0.000370909 0)
(0.974944 4.24428e-05 -5.28597e-23)
(0.619379 -0.0301564 -2.88909e-22)
(0.467848 -0.0471773 7.26379e-22)
(0.25136 -0.190717 -8.79304e-22)
(0.550058 0.0169428 0)
(0.567048 0.00862846 4.66453e-23)
(0.579933 0.000934293 -1.45243e-22)
(0.584215 -0.00869428 5.12113e-22)
(0.561424 -0.0230773 -8.70069e-22)
(-0.0147977 0.00626231 3.73953e-22)
(-0.00925655 0.00306707 -3.99031e-22)
(-0.00538137 0.00139855 -1.97813e-22)
(-0.00280361 0.000480773 3.91529e-22)
(-0.00117019 4.41194e-05 4.71513e-23)
(-0.00020445 -6.19334e-05 -2.85105e-23)
(-0.136765 -0.250139 5.90091e-23)
(0.41187 -0.147948 -6.13968e-23)
(0.732623 -0.00900564 -7.96096e-22)
(0.901043 -0.0011208 0)
(0.973676 0.000110317 0)
(0.498931 -0.0538106 5.5235e-22)
(0.325019 -0.0808935 -2.77469e-22)
(0.106107 -0.229953 1.02606e-22)
(-0.141486 -0.298036 1.3844e-21)
(-0.0465606 0.0112368 0)
(-0.0340149 0.00583221 1.86974e-22)
(-0.0235926 0.00285529 -6.6037e-22)
(-0.0149916 0.0011448 1.84149e-22)
(-0.00793061 0.000287952 -4.38785e-23)
(-0.00212942 2.21197e-05 -2.72427e-23)
(-0.00759821 -0.288667 0)
(-0.120682 -0.194866 0)
(0.582872 -0.103397 4.88284e-22)
(0.850306 -0.000876578 -3.99702e-23)
(0.970565 0.000203455 -1.03084e-22)
(-0.0156666 -0.332434 -1.64663e-21)
(-0.0758902 0.0099716 0)
(-0.0567898 0.00550835 1.93296e-22)
(-0.0403257 0.0027552 -1.4271e-24)
(-0.0262422 0.00116892 9.55707e-23)
(-0.0142596 0.000359965 -4.49124e-23)
(-0.00411369 7.19952e-05 0)
(-0.0276629 -0.163688 -5.51236e-22)
(-0.00298678 -0.232973 0)
(-0.0950027 -0.136175 5.08331e-22)
(0.757871 -0.0597742 0)
(0.956533 0.00135194 7.64479e-23)
(-0.0467522 -0.204322 0)
(-0.0978399 0.00823293 0)
(-0.0739946 0.00457963 1.20192e-22)
(-0.0530605 0.00233016 -3.48481e-22)
(-0.0348713 0.00102285 1.12758e-22)
(-0.0192034 0.000344243 5.03921e-23)
(-0.00577419 8.90532e-05 -1.68914e-23)
(-0.0156486 -0.118338 2.82637e-22)
(-0.0145586 -0.122933 0)
(-0.000258523 -0.169054 -4.4553e-22)
(-0.060524 -0.0775993 4.30431e-22)
(0.931391 -0.0147226 0)
(-0.0284169 -0.147693 0)
(-0.10663 0.00716968 1.53305e-22)
(-0.0807301 0.00404986 -1.48002e-22)
(-0.0579788 0.00206003 1.43213e-22)
(-0.038174 0.000898978 -2.74178e-22)
(-0.0210931 0.000302903 3.77057e-22)
(-0.00648604 7.85157e-05 -5.0273e-23)
(-0.0132998 -0.0672568 2.43823e-22)
(-0.0077168 -0.0886011 -5.22124e-22)
(-0.00597274 -0.0837923 1.52082e-22)
(0.00180849 -0.100684 -4.61994e-22)
(-0.0141881 -0.0214005 1.30997e-23)
(-0.0240054 -0.0860629 0)
(-0.0153165 -0.0447421 -5.5001e-23)
(-0.107475 0.00771806 -1.88768e-22)
(-0.0812666 0.00487811 7.60927e-22)
(-0.0584432 0.00261951 -7.26535e-22)
(-0.0386136 0.00113008 0)
(-0.0214259 0.000349001 0)
(-0.00668573 7.24737e-05 -5.51514e-24)
(-0.00841603 -0.0347245 1.1729e-22)
(-0.00664039 -0.0493582 3.4279e-24)
(-0.00302985 -0.0602154 3.98033e-22)
(-0.00126072 -0.0474175 -1.4955e-22)
(0.00233695 -0.0310033 0)
(-0.00861803 -0.0194663 8.91371e-22)
(-0.0629467 0.00403651 8.29965e-22)
(-0.0412341 0.0025427 -8.58224e-22)
(-0.0226654 0.000899918 0)
(-0.00697607 0.000156862 -7.77554e-24)
(-0.00474117 -0.0145156 -2.36367e-22)
(-0.00414961 -0.0252309 -9.17054e-23)
(-0.00271938 -0.0330062 1.89072e-22)
(-0.000643498 -0.0340701 -1.29357e-22)
(0.000181895 -0.0143218 4.94339e-23)
(-0.0043994 -0.00533468 0)
(-0.00265693 0.00321183 -1.02348e-21)
(-0.0501951 0.00115333 0)
(-0.0175733 0.000388454 -2.71795e-23)
(-0.00150093 0.000628153 0)
(-0.00234185 -0.00365606 -2.40586e-22)
(-0.00231314 -0.01016 -4.59409e-22)
(-0.00170557 -0.0166977 -6.25088e-23)
(-0.00072166 -0.0184686 1.27186e-22)
(7.61237e-05 -0.0105985 -4.96243e-23)
(-0.00105543 -0.00079392 2.08722e-21)
(-0.00128195 0.00156853 2.17779e-21)
(-0.00306385 0.00365755 7.01616e-23)
(-0.000147521 0.00182971 -4.814e-22)
(-0.000739268 0.000900605 -9.54096e-25)
(-0.00109992 -0.00230945 1.24602e-22)
(-0.000945248 -0.00649272 3.72102e-22)
(-0.000479535 -0.00926105 7.62458e-24)
(-6.55276e-05 -0.00578999 -2.27995e-23)
(-0.000145512 -0.00241857 -1.8429e-24)
(-0.000441852 -0.0013176 -1.74616e-21)
(-0.000537016 0.000699723 -5.2661e-22)
(-0.00134202 0.00156505 0)
(-0.00315861 0.0090221 1.51547e-21)
(0.000360112 0.00141012 -2.5873e-22)
(-1.46429e-05 0.00163564 2.56503e-22)
(-0.000310722 0.000944232 1.28421e-22)
(-0.000433156 -0.00130975 0)
(-0.000268406 -0.00348397 -1.21959e-22)
(-6.41457e-05 -0.002906 1.71331e-23)
(0.000217718 -0.00266729 8.27271e-22)
(1.22376e-05 -0.0022901 3.3367e-22)
(-0.000157559 -0.00138766 1.96621e-22)
(-0.000170183 0.000210453 5.35688e-23)
(-0.000329941 0.000542236 -6.14104e-23)
(-0.000454378 0.00208656 1.09111e-21)
(0.00029116 0.000502468 1.08128e-21)
(0.000231933 0.00119157 -4.04722e-22)
(2.28868e-05 0.00133539 -2.63974e-22)
(-0.000105916 0.000803729 -1.28485e-22)
(-0.000114092 -0.000611025 0)
(-3.91449e-05 -0.00105604 -1.12774e-23)
(0.000501176 -0.0019468 0)
(0.00017685 -0.00228033 -2.86234e-22)
(4.57805e-05 -0.0019115 -9.8622e-22)
(-3.63114e-05 -0.00116144 3.21352e-22)
(-2.14977e-05 -1.70911e-05 -3.57985e-22)
(-1.21771e-05 1.26777e-05 9.64904e-24)
(0.000500852 0.000180005 -4.69754e-22)
(0.000161912 0.000376839 7.16137e-22)
(0.000131053 0.000924306 -6.92917e-22)
(2.38842e-05 0.000969903 1.32345e-22)
(-1.71786e-05 0.000537476 0)
(-1.08779e-05 -0.000151253 1.11506e-23)
(0.000369913 -0.000663948 0)
(0.000301648 -0.00160895 5.50293e-22)
(0.00011043 -0.00178347 7.163e-22)
(3.68242e-05 -0.00139914 9.39421e-22)
(8.28963e-06 -0.000760016 -3.33652e-22)
(9.68689e-06 -5.09416e-05 -2.2034e-23)
(0.00112657 0.000259186 -5.60782e-22)
(0.000358032 9.81623e-05 0)
(7.92652e-05 0.000259372 5.14279e-22)
(6.12763e-05 0.000641624 0)
(1.56226e-05 0.000577277 0)
(5.99566e-06 0.000196544 0)
(0.000683404 -0.000221258 6.27087e-22)
(0.000200221 -0.000500614 -5.69188e-22)
(0.00016112 -0.00122414 -5.59954e-22)
(5.61166e-05 -0.00124696 -4.17996e-22)
(2.33068e-05 -0.000834258 -4.34642e-22)
(1.29722e-05 -0.000269222 1.31149e-23)
(0.0015739 0.000137163 0)
(0.00090123 0.000149145 1.40545e-22)
(0.000237441 4.85486e-05 0)
(3.07256e-05 0.000159431 1.99187e-27)
(2.09311e-05 0.000365131 0)
(8.40522e-06 0.000185351 -8.97952e-23)
(0.00171669 -2.21639e-05 0)
(0.00147458 -0.000240239 -5.65969e-22)
(0.000498318 -0.000124756 -1.5795e-22)
(9.49595e-05 -0.000344992 2.91818e-22)
(7.23822e-05 -0.000835553 -4.14912e-22)
(2.37496e-05 -0.000715892 -1.31441e-22)
(1.20145e-05 -0.000268957 9.15444e-23)
(0.00126685 7.76467e-05 -1.88748e-23)
(0.000672539 7.74065e-05 -2.10188e-22)
(0.000142566 1.89429e-05 0)
(6.07841e-06 7.9451e-05 -1.08199e-22)
(5.36294e-06 0.000107054 9.05842e-23)
(0.00137981 -1.53852e-05 2.0987e-24)
(0.0011787 -0.000141881 6.35605e-22)
(0.000337532 -6.25849e-05 -4.77855e-27)
(3.61645e-05 -0.000212607 1.33096e-25)
(2.36448e-05 -0.000467749 -2.65246e-22)
(9.25249e-06 -0.000216839 8.36194e-23)
(0.000954682 4.01581e-05 1.4856e-22)
(0.000455102 3.42414e-05 1.02537e-22)
(7.04491e-05 3.70398e-06 -1.26137e-22)
(-1.09833e-06 1.84207e-05 2.30029e-23)
(0.00103959 -9.3097e-06 2.09419e-24)
(0.000881849 -7.61452e-05 -1.40586e-22)
(0.000207326 -2.4855e-05 4.54091e-22)
(6.99939e-06 -0.000106469 -2.12737e-22)
(5.83514e-06 -0.000132818 3.38266e-26)
(0.00065413 1.7934e-05 0)
(0.00025608 1.13436e-05 1.13802e-22)
(1.67703e-05 -9.95289e-07 7.96632e-23)
(0.000712708 -5.14113e-06 0)
(0.000599049 -3.48935e-05 -2.05665e-22)
(0.000104966 -5.14194e-06 3.95851e-22)
(-1.33256e-06 -2.47894e-05 4.39572e-23)
(0.000374876 6.17044e-06 -9.70877e-25)
(7.81638e-05 2.72023e-06 -1.43002e-22)
(0.000408906 -2.57498e-06 9.69615e-25)
(0.00033871 -1.22778e-05 -1.14014e-22)
(2.587e-05 1.08025e-06 1.12917e-22)
(0.000121568 1.58388e-06 4.33771e-23)
(0.000132859 -1.18055e-06 0)
(0.00010419 -3.45381e-06 -1.09949e-23)
(-0.142813 0.303999 2.22406e-21)
(-0.0269745 0.25889 5.09804e-22)
(-0.0419095 0.128232 0)
(-0.0753832 0.189416 2.78691e-21)
(-0.0629159 0.194135 -2.94508e-21)
(-0.0730492 0.268132 0)
(-0.0373679 0.311029 0)
(-0.0980713 0.353125 -1.02585e-21)
(-0.0849913 0.314083 0)
(-0.0388903 0.266503 -1.88525e-21)
(0.152062 0.126623 4.23733e-21)
(-0.0955444 0.278674 0)
(-0.0337923 0.0636632 -3.65829e-22)
(-0.0560407 0.105163 0)
(-0.0162006 0.0192646 -3.81964e-21)
(-0.0385732 0.0469561 3.90879e-21)
(-0.083108 0.121571 -2.27114e-21)
(-0.11473 0.159195 0)
(-0.0953825 0.203305 0)
(-0.119102 0.240003 6.18485e-22)
(-0.108872 0.295325 0)
(-0.0976038 0.289385 1.95873e-21)
(-0.0154846 0.194289 2.36974e-21)
(0.0944963 0.155365 -5.71777e-21)
(0.302526 0.0910873 1.12325e-21)
(-0.149971 0.234942 -5.9014e-22)
(-0.140657 0.252152 0)
(-0.0215694 0.0120622 -3.16027e-21)
(-0.0491632 0.028624 8.657e-22)
(-0.0607308 0.0521049 7.20683e-22)
(-0.0912901 0.0817576 2.30925e-21)
(-0.121391 0.0805136 -4.44721e-21)
(-0.167298 0.11517 -3.9348e-21)
(-0.159295 0.156612 -3.00749e-21)
(-0.184422 0.185075 5.63331e-21)
(-0.131143 0.208354 -1.64187e-21)
(-0.0603011 0.183761 -1.71401e-21)
(0.0428125 0.128147 0)
(0.386916 0.0502412 -5.74631e-21)
(0.189927 0.106212 0)
(0.423001 0.0295892 0)
(0.242897 0.0590434 4.83626e-21)
(-0.206746 0.172314 0)
(-0.179007 0.179305 0)
(-0.0110729 -0.277205 6.03855e-21)
(-0.146257 -0.330144 0)
(0.385578 -0.0832969 0)
(0.435253 0.0146248 -1.97056e-22)
(0.272276 0.0338124 0)
(0.26814 -0.0941069 0)
(0.455136 -0.0374857 1.18381e-21)
(0.456842 0.00169914 3.69771e-21)
(0.294815 0.0083552 0)
(0.318245 -0.0440756 0)
(0.472255 -0.0152304 0)
(0.323182 -0.0149341 -3.75455e-21)
(-0.0639103 0.0225078 1.15013e-21)
(-0.0973011 0.0359384 -1.44629e-21)
(-0.120356 0.048467 4.75705e-21)
(-0.173185 0.0545674 0)
(-0.201958 0.0847474 0)
(-0.231244 0.0949655 -3.10636e-21)
(-0.24925 0.119431 -2.36384e-21)
(-0.152683 0.138506 0)
(0.0666363 0.0799501 3.34759e-21)
(-0.0359276 0.11746 0)
(0.150563 0.0431177 0)
(0.00377039 0.067607 -3.62021e-21)
(-0.26669 0.10556 7.85057e-21)
(-0.22878 0.112429 -2.3197e-21)
(-0.0117317 -0.263888 -3.40788e-21)
(0.171703 -0.137492 7.6723e-21)
(0.14634 -0.156671 -6.00428e-21)
(-0.115111 -0.386547 1.70507e-21)
(-0.0776879 -0.328508 -3.71141e-21)
(-0.0363945 -0.359768 2.43789e-22)
(0.0467498 -0.18319 -6.36535e-21)
(0.0498616 -0.153324 2.08674e-21)
(0.148172 -0.109697 3.22864e-21)
(0.132084 0.00974378 0)
(0.0242594 0.0375495 0)
(0.0846703 -0.0938859 -3.55821e-21)
(0.187531 -0.0570394 0)
(0.0990004 -0.0461446 -3.31772e-21)
(0.198462 -0.0211319 3.02552e-21)
(0.0595116 -0.0100002 4.61143e-21)
(-0.0971385 0.0160921 1.65404e-21)
(-0.140807 0.0247395 0)
(-0.167832 0.0341442 0)
(-0.212978 0.0398013 3.28583e-21)
(-0.244442 0.0583751 0)
(-0.273436 0.0592796 8.26743e-21)
(-0.293715 0.0751642 -7.06489e-21)
(-0.109458 0.053497 0)
(-0.132834 0.0682145 -5.67842e-21)
(-0.222958 0.0864229 1.15669e-20)
(-0.195898 0.0392722 0)
(-0.292096 0.0742227 -7.47645e-21)
(-0.305315 0.0681904 -3.98825e-21)
(-0.0864536 -0.314244 0)
(-0.0715209 -0.247697 7.72916e-21)
(-0.0720678 -0.242776 0)
(-0.0642673 -0.322152 -5.2766e-22)
(-0.0904667 -0.324978 4.1442e-22)
(-0.103204 -0.241389 -7.93801e-21)
(-0.0616618 -0.187762 -7.29313e-21)
(-0.0917594 -0.16186 9.69826e-21)
(-0.0388545 -0.115562 2.99176e-21)
(-0.105304 -0.0829503 -3.91921e-21)
(-0.0519852 -0.0525777 0)
(-0.0789806 -0.0181384 -3.18764e-21)
(-0.173232 0.0103402 0)
(-0.123141 0.0130896 0)
(-0.167248 0.019645 -1.28216e-21)
(-0.197449 0.0254181 -5.02358e-21)
(-0.231604 0.0316602 4.30841e-21)
(-0.260208 0.0421995 -1.5331e-21)
(-0.278473 0.0442323 -1.96792e-21)
(-0.306275 0.0559255 6.23064e-21)
(-0.27746 0.0458842 -6.95043e-21)
(-0.300545 0.0608157 8.47418e-21)
(-0.264129 0.0149669 0)
(-0.298186 0.0388205 -1.19072e-21)
(-0.319881 0.060765 0)
(-0.312957 0.0555921 0)
(-0.0467724 -0.173174 -1.23719e-20)
(-0.0895882 -0.247714 4.2676e-21)
(-0.110122 -0.257512 5.15604e-21)
(-0.122302 -0.287294 -7.10644e-22)
(-0.138525 -0.257988 6.55612e-22)
(-0.172902 -0.2086 -7.46742e-21)
(-0.175849 -0.169421 0)
(-0.196418 -0.11216 -9.33382e-21)
(-0.280015 0.01727 -4.39322e-21)
(-0.23771 -0.081483 6.79055e-21)
(-0.273785 -0.0186198 2.80226e-21)
(-0.134998 0.011464 4.52173e-21)
(-0.29309 0.0521951 2.69906e-21)
(-0.172747 0.0177154 -3.23052e-21)
(-0.198069 0.0230144 -2.79671e-21)
(-0.225164 0.0308962 -6.05707e-21)
(-0.260204 0.0391918 1.35531e-21)
(-0.269434 0.0432937 -3.43401e-21)
(-0.292751 0.0450757 -2.7e-21)
(-0.316709 0.0596509 6.73096e-22)
(-0.311946 0.0504886 1.23315e-21)
(-0.273042 0.0580842 4.81835e-21)
(-0.289467 0.0559484 1.99756e-21)
(-0.300201 0.0634185 -1.27982e-21)
(-0.292358 0.0601414 -1.91954e-21)
(-0.240543 0.0635466 -6.67776e-21)
(-0.0387763 -0.104101 0)
(-0.062398 -0.164626 8.27921e-21)
(-0.181366 0.0651828 0)
(-0.219614 0.0546858 4.37782e-21)
(-0.119455 0.0607242 8.47559e-21)
(-0.145041 0.0573686 -5.59664e-21)
(-0.085883 -0.179863 0)
(-0.125227 -0.219638 -4.90136e-21)
(-0.162375 -0.196991 1.50043e-20)
(-0.217681 0.0280518 -5.83726e-21)
(-0.243977 0.00838243 4.62094e-21)
(-0.179191 -0.155853 -1.0701e-20)
(-0.22991 -0.0763149 1.13812e-22)
(-0.221246 -0.0471249 -9.42704e-21)
(-0.135101 0.0116246 0)
(-0.264586 0.0520271 0)
(-0.243728 0.0390437 2.59848e-22)
(-0.249197 0.0456927 -3.54657e-22)
(-0.168312 0.0198593 -5.02718e-21)
(-0.196211 0.0260135 5.34628e-21)
(-0.214439 0.0310263 4.63811e-21)
(-0.282972 0.0690461 1.83148e-21)
(-0.275 0.0686171 -4.17016e-22)
(-0.24552 0.0762919 3.63409e-21)
(-0.226391 0.0753612 1.32597e-21)
(-0.257492 0.0564502 -5.47857e-21)
(-0.262983 0.0708582 2.00023e-23)
(-0.269785 0.0629086 4.6779e-21)
(-0.199677 0.0809924 2.29951e-21)
(-0.174874 0.0793528 -7.50226e-21)
(-0.118598 0.0722528 2.8825e-21)
(-0.143651 0.0795775 2.38149e-21)
(-0.0946689 0.0700268 -3.36691e-21)
(-0.0568687 0.0517943 0)
(-0.0750489 0.058239 2.79738e-21)
(-0.0907825 0.0540472 -2.39983e-22)
(-0.082375 0.0464467 0)
(-0.0246919 -0.054126 -4.19761e-21)
(-0.0487241 -0.0939965 4.10688e-21)
(-0.0590617 -0.101449 2.88776e-21)
(-0.0946204 -0.136836 0)
(-0.106372 0.0313339 1.02033e-20)
(-0.139596 0.0337292 0)
(-0.167236 0.0185618 5.6624e-21)
(-0.120568 -0.115143 1.30657e-22)
(-0.151136 -0.0265116 1.53367e-21)
(-0.150663 -0.123013 -4.22015e-21)
(-0.1787 -0.0555336 8.46712e-21)
(-0.0137504 -0.0249379 -4.96318e-22)
(-0.0252376 -0.0425978 0)
(-0.125286 0.0106383 0)
(-0.0845988 0.00377143 -5.1513e-22)
(-0.102288 0.0049411 5.19281e-22)
(-0.222309 0.0435871 -3.01035e-21)
(-0.232848 0.0535226 2.6469e-21)
(-0.14915 0.0163869 0)
(-0.183746 0.0252989 -2.45837e-21)
(-0.199803 0.034695 2.96087e-21)
(-0.197526 0.0853131 1.24127e-21)
(-0.237474 0.0757038 -2.01842e-21)
(-0.230947 0.0806274 -2.56107e-21)
(-0.21712 0.0594516 -3.41101e-21)
(-0.217393 0.0707204 6.7634e-22)
(-0.174818 0.0832403 0)
(-0.14673 0.0833437 0)
(-0.133286 0.0817766 0)
(-0.106003 0.0784133 -2.97469e-21)
(-0.086556 0.071892 -1.67495e-21)
(-0.0667032 0.0653536 3.98796e-21)
(-0.0499365 0.0535785 0)
(-0.00769734 0.0143714 0)
(-0.00492753 0.00951235 -6.67378e-22)
(-0.0140805 0.0256748 3.59502e-21)
(-0.0225702 0.0346331 -3.15145e-21)
(-0.0359133 0.0465743 0)
(-0.0255146 0.0325232 -5.85376e-21)
(-0.0388496 0.0398295 3.70773e-23)
(-0.0105863 0.01529 0)
(-0.0144762 0.0199746 -4.59748e-21)
(-0.00484486 0.00586078 0)
(-0.0410793 0.0350662 1.33077e-23)
(-0.0589229 0.0396484 2.02536e-23)
(-0.0580624 0.0301033 3.55498e-21)
(-0.0912396 0.0256521 -4.32521e-21)
(-0.0358912 -0.0473736 8.81415e-21)
(-0.0597548 -0.0661347 -1.85512e-20)
(-0.0872716 -0.0663033 3.95181e-21)
(-0.0865418 0.00896222 -2.27982e-21)
(-0.0954324 -0.0374201 8.37773e-21)
(-0.115801 -0.0222583 -5.88597e-21)
(-0.00678201 -0.00714921 0)
(-0.0128612 -0.0154007 0)
(-0.0159222 -0.0166864 -3.6469e-21)
(-0.0318092 -0.0280389 -5.33438e-21)
(-0.00415395 0.00673823 5.64728e-22)
(-0.117007 0.0102711 1.25567e-21)
(-0.0693218 0.000784948 0)
(-0.0869208 0.00276077 -1.09862e-21)
(-0.145639 0.028963 1.49304e-21)
(-0.172295 0.0370895 -4.46248e-21)
(-0.187901 0.0544034 -8.04954e-23)
(-0.161005 0.067099 4.05055e-21)
(-0.180081 0.0752164 -4.75373e-21)
(-0.167632 0.0805394 3.23396e-21)
(-0.0981001 0.0782126 -3.92928e-21)
(-0.127332 0.0772676 6.07486e-23)
(-0.124744 0.0818628 1.11133e-21)
(-0.03672 0.0525096 4.04285e-21)
(-0.0560166 0.0637622 -4.37136e-23)
(-0.0778296 0.0709752 1.9582e-21)
(-0.011029 0.0270295 1.76569e-21)
(-0.0270504 0.0443576 -2.13926e-21)
(-0.00623818 0.0175413 -1.58704e-21)
(-0.0162992 0.0183826 5.23251e-21)
(-0.025792 0.023762 0)
(-0.00493708 0.00503463 4.11073e-21)
(-0.00725324 0.00753334 -7.26513e-21)
(-0.00218121 0.000448383 0)
(-0.00219887 0.000137803 0)
(-0.00444153 -0.00232399 -1.15547e-21)
(-0.0263253 0.0192826 5.24083e-21)
(-0.0406614 0.0215702 -1.5546e-23)
(-0.040561 0.0141644 -1.078e-20)
(-0.0622489 0.00755026 1.08826e-20)
(-0.0383221 -0.0177636 3.80818e-21)
(-0.0534712 -0.0175713 -3.09038e-21)
(-0.0471166 -0.00253368 -3.80777e-21)
(-0.00644387 -0.00322685 7.17216e-22)
(-0.0128692 -0.00720123 2.0336e-21)
(-0.0210684 -0.0066497 1.40879e-21)
(-0.00501455 0.013283 -3.04961e-21)
(-0.0289653 0.0490204 0)
(-0.061047 0.0632683 0)
(-0.092385 0.0356771 3.94756e-21)
(-0.107911 0.0548028 -2.76825e-21)
(-0.100163 0.0664721 0)
(-0.0220848 0.0025775 3.0665e-23)
(-0.0621223 0.0146759 0)
(-0.00991935 0.0306145 -1.03558e-22)
(-0.000848682 0.00153915 -6.08633e-22)
(-0.000241643 0.00186761 2.99362e-21)
(-0.00910801 0.00695762 7.49709e-21)
(-0.014437 0.0105895 0)
(-0.00151986 -0.000604747 -3.39757e-21)
(-0.00337527 0.000821903 -1.0785e-20)
(-0.00048539 -0.0021222 5.95428e-21)
(-0.00140506 0.0012481 4.21828e-22)
(-0.00530446 -0.00087259 0)
(-0.0155938 0.00607116 0)
(-0.0252884 0.00786701 0)
(-0.0277416 0.000542345 0)
(-0.00735419 -0.000738886 4.81282e-21)
(-0.016009 -0.00297045 -4.11243e-21)
(-0.018237 0.000583937 0)
(-0.00130655 0.00982576 0)
(-0.000470636 0.00146793 2.72232e-21)
(0.000530177 0.00154623 -6.82849e-21)
(0.00058403 0.00179314 1.18861e-20)
(0.00054989 0.00161078 -7.18349e-21)
(0.000810015 0.00113804 -2.33859e-21)
(0.000437045 0.000593965 0)
(-0.00308603 0.000115068 3.51797e-21)
(-0.00657468 0.00147257 0)
(0.000134985 -0.00271498 0)
(-0.000245336 -0.00220773 0)
(0.000207542 -0.00283644 -1.2945e-21)
(-0.000854314 0.000944059 2.23568e-21)
(-0.00310948 0.000688692 0)
(-0.00243917 0.000424189 6.76772e-21)
(-0.00458957 0.000819667 1.78995e-21)
(-0.00592719 0.0015186 -6.74993e-21)
(0.00104158 0.00132187 0)
(0.000637108 0.00117072 5.27874e-21)
(0.0011471 0.000986381 8.5615e-21)
(0.00136115 0.00114441 -9.71089e-21)
(0.000630968 0.000321689 -1.74306e-22)
(0.00113388 0.000606998 7.23229e-21)
(0.00069832 -0.00210583 1.45275e-21)
(0.000113518 -0.00114705 -1.08938e-21)
(0.000706987 -0.00216231 -8.36495e-21)
(0.000894202 -0.00251381 1.14301e-20)
(0.00111371 -0.00235395 0)
(0.0011572 0.000875753 -5.35762e-21)
(0.000386533 0.000813657 -7.84217e-21)
(0.00152832 3.26707e-05 1.1627e-20)
(0.00142366 -0.000898161 0)
(0.00101128 -0.00138981 0)
(0.0005522 -0.000775198 4.45964e-21)
(0.0018052 0.00077806 3.35707e-21)
(0.0019048 0.000741971 -5.95439e-21)
(0.00134359 0.000425347 -1.30433e-22)
(0.00176507 0.000555599 1.7629e-24)
(0.00148324 -0.00125198 0)
(0.00182057 -0.00150754 1.95026e-21)
(0.00204317 -0.000997944 -1.68482e-21)
(0.00235399 0.000261467 -4.09493e-24)
(0.0022826 -0.000496501 7.99753e-22)
(0.00227025 -9.75046e-05 6.32173e-21)
(0.000836314 -0.000366967 -5.91144e-21)
(0.00151199 -0.000708906 0)
(0.00187815 0.0002356 -8.83038e-21)
(0.00226944 0.000191766 4.21001e-21)
(0.00205744 -2.84101e-05 4.48312e-21)
(0.00178274 -0.000403168 0)
(0.00215672 -0.000416509 -4.91165e-21)
)
;

boundaryField
{
    movingWall
    {
        type            fixedValue;
        value           uniform (1 0 0);
    }
    fixedWalls
    {
        type            noSlip;
    }
    frontAndBack
    {
        type            empty;
    }
    defaultFaces
    {
        type            empty;
    }
}


// ************************************************************************* //
