/*--------------------------------*- C++ -*----------------------------------*\
  =========                 |
  \\      /  F ield         | OpenFOAM: The Open Source CFD Toolbox
   \\    /   O peration     | Website:  https://openfoam.org
    \\  /    A nd           | Version:  8
     \\/     M anipulation  |
\*---------------------------------------------------------------------------*/
FoamFile
{
    version     2.0;
    format      ascii;
    class       volScalarField;
    location    "0.08";
    object      p;
}
// * * * * * * * * * * * * * * * * * * * * * * * * * * * * * * * * * * * * * //

dimensions      [0 2 -2 0 0 0 0];

internalField   nonuniform List<scalar> 
656
(
4.38804e-07
-0.235415
1.7286
-0.786697
0.189109
1.73124
-1.15106
-1.55284
2.05501
1.70641
1.76606
-0.438536
0.386131
1.74772
2.03451
2.25921
1.63659
1.58731
2.26849
2.3914
1.8021
1.82117
1.78639
1.8179
-0.0678267
0.616183
1.77439
2.01726
2.25045
1.84381
1.86661
2.55673
2.39638
2.38639
2.55445
2.69
2.15653
2.17262
2.13722
1.78223
1.85334
0.280471
0.818514
1.80945
2.00693
2.24339
2.18686
2.19941
2.86032
2.69083
2.55899
2.38212
2.55205
2.68875
2.86081
3.02749
2.16146
2.17583
2.18739
2.12037
2.14578
1.82908
2.00077
2.23605
2.19766
2.20648
3.0263
2.8584
2.69131
3.34491
2.37751
2.54909
2.68636
2.85969
3.02735
2.1827
2.19277
2.19459
2.1941
1.9896
2.22567
2.19339
2.19285
3.61244
3.34061
3.02251
2.85602
3.34545
3.56245
4.81659
2.36921
2.54658
2.68237
2.85995
3.0287
2.09323
2.0887
2.09003
2.0922
2.09408
2.09545
5.39497
5.07754
3.65358
3.3284
3.01716
3.35159
3.52783
4.58586
5.00428
2.11805
2.1018
2.09348
2.08715
2.08102
2.07559
3.46393
5.83363
5.30378
3.68492
3.31173
3.39808
2.13833
2.12599
2.11483
2.10557
2.09738
2.0902
3.53792
3.5492
6.25266
5.51764
3.70232
3.53239
2.2263
2.21165
2.19908
2.18873
2.17964
2.17172
3.18936
3.54078
3.65147
6.69746
5.77317
3.19318
2.3262
2.31367
2.30161
2.29131
2.28242
2.27493
3.12262
3.18754
3.53833
3.76316
7.19328
3.13344
3.07483
2.40767
2.4083
2.40207
2.39076
2.37918
2.36942
3.06622
3.1126
3.18554
3.52849
3.85139
3.07009
2.47129
2.50097
2.4943
2.47741
3.06512
3.05741
3.10332
3.1814
3.51424
3.07077
3.18826
2.31755
2.30546
3.08445
3.06813
3.05917
3.04996
3.09339
3.17533
3.15791
3.19272
3.21534
3.09291
3.08365
3.06481
3.05428
3.04294
3.08388
3.1369
3.15957
3.19728
3.21655
3.33992
3.09804
3.09265
3.08252
3.06244
3.04996
3.03659
3.12373
3.13691
3.16021
3.2004
3.2288
3.387
3.10058
3.0984
3.09283
3.08204
3.06056
3.04621
3.11591
3.12324
3.13651
3.16006
3.20225
3.23967
3.09868
3.10082
3.09882
3.09311
3.08183
3.05897
3.11153
3.11516
3.12249
3.13577
3.15966
3.20314
3.10102
3.0984
3.10099
3.09927
3.09352
3.08169
3.11425
3.11115
3.11439
3.12172
3.13496
3.15926
3.10351
3.10074
3.09829
3.10109
3.0997
3.09389
3.1075
3.11041
3.11456
3.11086
3.11371
3.12095
3.1343
3.10335
3.10045
3.09825
3.10116
3.10013
3.10759
3.11078
3.1147
3.1107
3.1131
3.12033
3.10321
3.10019
3.09824
3.10123
3.10768
3.11111
3.11476
3.1106
3.11254
3.10308
3.09995
3.09823
3.10775
3.11142
3.11478
3.11052
3.10296
3.09974
3.10782
3.1117
3.11481
3.10285
3.10788
3.11196
0.611872
0.921025
2.1209
2.05031
1.83001
1.80102
1.83257
1.36903
1.47457
1.26355
1.80882
1.85002
2.14478
2.14368
2.1654
2.16155
2.10571
2.08036
2.01317
1.95876
1.74479
1.56626
1.91248
1.84332
1.9934
1.99089
1.88165
2.10611
2.1079
2.14098
2.15624
2.16323
2.12633
2.0812
2.09202
2.00125
1.94344
2.13243
2.226
2.11443
2.36213
2.27295
2.13648
2.07567
4.46956
4.70426
3.3263
2.5499
2.45667
3.17346
3.02226
2.68281
2.64617
2.96512
2.86549
2.80924
2.14182
2.11385
2.12914
2.17198
2.22535
2.21784
2.2087
2.20969
2.26271
2.16366
2.45114
2.39419
2.28199
2.29788
3.96839
3.53519
3.45027
3.98475
3.79614
3.42527
3.28036
3.30991
3.16903
2.62049
2.52744
3.08312
2.97607
2.88834
2.81516
2.74295
2.1456
2.16417
2.19143
2.24984
2.27615
2.34397
2.36879
2.56627
2.41773
2.36461
2.65327
2.48409
2.42295
3.6696
3.53954
3.48914
3.52739
3.44772
3.36962
3.22759
3.17437
3.05134
2.9604
2.87874
2.73928
2.70054
2.23575
2.25166
2.27587
2.36654
2.38523
2.4363
2.47434
2.58763
2.53956
2.80856
2.7329
2.59623
2.54054
3.18401
3.31863
3.3291
3.35971
3.27918
3.20678
3.11484
3.03135
2.89168
2.97754
2.91226
2.33682
2.55176
2.378
2.39063
2.43919
2.45232
2.51735
2.85222
2.69173
2.73482
2.88256
2.597
2.70575
2.67984
2.88288
3.12801
3.15297
3.00083
2.96645
3.08548
3.03097
3.19325
3.24013
3.21769
3.00976
2.98404
3.17392
3.02778
3.04245
2.42674
2.6196
2.53561
2.59432
2.4758
2.4789
2.51113
2.74683
2.81498
2.86857
2.92058
2.6782
2.75335
2.70902
2.91802
2.97932
3.03653
3.03243
3.09736
3.14435
3.12458
3.06825
3.06562
3.07228
3.05993
3.08175
3.12733
3.05154
3.07593
3.03792
3.07594
3.07691
3.09098
3.0734
3.06652
3.07112
2.5599
2.45318
2.52474
2.63812
2.65748
2.53148
2.54416
2.63084
2.94428
2.79782
2.83859
2.67711
2.79815
2.98254
2.96402
3.0415
3.07032
3.09724
3.1404
3.14497
3.20289
3.22708
3.22751
3.19779
3.16944
3.18969
3.14317
3.20324
3.18236
3.18557
3.14438
3.1185
3.1076
3.05705
3.09835
3.10035
3.1257
3.09696
3.07061
3.06113
3.06646
3.06333
3.06714
3.09311
3.23882
2.44957
2.33451
2.41666
2.56383
2.59292
2.67014
2.8404
2.82917
2.86793
3.11053
3.00033
3.00884
3.27083
3.16378
3.14122
3.30528
3.27939
3.3682
3.16558
3.13421
3.16564
3.15393
3.15738
3.08086
3.08245
3.13237
3.10819
3.11379
3.08887
3.06201
3.09259
3.09859
3.0873
3.09074
3.10224
3.3795
3.18474
3.06706
3.0238
3.02726
2.98073
2.77731
3.02486
3.32125
3.09143
3.09109
3.14635
3.13237
3.13897
3.12844
3.13779
3.09343
3.09131
3.12695
3.11505
3.10228
3.09168
3.10297
3.08922
3.54244
3.09772
3.09764
3.09743
3.09849
3.09951
3.10038
3.12717
3.11437
3.12569
3.12352
3.12479
3.09822
3.10539
3.10044
3.11336
3.11556
3.09937
3.10183
3.10022
3.10049
3.09944
3.10026
3.11777
3.11478
3.1162
3.11662
3.11623
3.10235
3.10477
3.10815
3.10973
3.11285
3.11174
3.10187
3.10302
3.10119
3.10178
3.11238
3.11226
3.11041
3.10534
3.10966
3.10719
3.11344
3.11211
3.10365
3.10516
3.10735
3.10992
3.10956
)
;

boundaryField
{
    movingWall
    {
        type            zeroGradient;
    }
    fixedWalls
    {
        type            zeroGradient;
    }
    frontAndBack
    {
        type            empty;
    }
    defaultFaces
    {
        type            empty;
    }
}


// ************************************************************************* //
