/*--------------------------------*- C++ -*----------------------------------*\
  =========                 |
  \\      /  F ield         | OpenFOAM: The Open Source CFD Toolbox
   \\    /   O peration     | Website:  https://openfoam.org
    \\  /    A nd           | Version:  8
     \\/     M anipulation  |
\*---------------------------------------------------------------------------*/
FoamFile
{
    version     2.0;
    format      ascii;
    class       volScalarField;
    location    "0.039";
    object      p;
}
// * * * * * * * * * * * * * * * * * * * * * * * * * * * * * * * * * * * * * //

dimensions      [0 2 -2 0 0 0 0];

internalField   nonuniform List<scalar> 
424
(
-3.59742e-06
0.0550614
0.013579
0.117789
0.0957384
0.247633
0.102093
0.0546009
0.277515
0.495461
0.478526
0.491383
0.0110879
-0.150764
0.508028
0.749716
0.508149
0.513804
-0.422088
-0.184311
0.749142
1.00239
0.672753
0.673468
-0.674284
-0.436701
-0.380689
-0.396066
0.988329
1.26965
1.47557
1.53806
0.850143
0.848225
-3.5216
-0.889103
-1.11163
-1.38891
-0.676993
-0.412378
-0.417517
1.23553
1.42929
1.52528
1.41539
1.00687
1.00451
-2.8878
-2.65127
-0.887391
-1.12254
-1.18062
-0.576977
-0.578194
1.43283
1.47069
1.02568
1.0219
-2.26933
-1.12679
-0.759688
-0.757382
1.51801
1.67543
-1.052
-0.621717
-0.946479
-0.945433
1.92531
1.7087
-0.0208276
-0.599115
-1.01276
-1.03698
2.1816
1.93771
1.89788
1.91107
0.728147
0.00835262
4.37581
2.404
1.47368
2.1045
2.68244
5.25477
2.88534
2.61738
2.17938
1.94286
1.94858
0.733543
-0.386625
3.9477
2.39734
1.45922
2.08223
2.56926
4.53624
2.64119
2.62727
2.10495
2.10569
-0.162804
-0.41242
2.2927
2.29026
0.393016
-0.163175
2.48807
2.49277
0.979072
0.392449
2.57539
2.6062
1.56074
0.978038
1.82208
1.55587
1.8402
0.130903
0.0405314
0.0477954
0.0785801
0.0944444
0.165845
-0.0273474
0.0103025
0.224349
0.317905
0.33314
0.15111
0.177597
0.219044
0.335978
0.303642
0.294855
0.445213
0.461239
0.446263
0.0651956
-0.000508572
0.0702211
0.0358821
-0.0164356
-0.0626306
-0.0404003
-0.160861
-0.0822232
-0.18905
0.000789739
0.0449546
0.0691661
0.114031
0.305647
0.169849
0.363323
0.353339
0.49052
0.511278
0.583837
0.513264
0.598972
-0.0311376
-0.0333334
-0.185986
-0.202914
-0.232025
-0.267305
-0.271645
-0.0486024
-0.281613
-0.0948698
-0.233145
0.642995
0.638964
0.750956
0.783276
0.679068
0.784376
-0.293801
-0.281744
-0.439234
-0.338949
-0.401463
-0.381089
-0.34896
0.885702
0.885111
0.985792
0.958344
1.05255
0.853749
0.943808
-0.546883
-0.6724
-0.503749
-0.554992
-0.41994
-0.515289
1.13584
1.15061
1.20718
1.2178
1.27449
1.22127
1.10959
1.18324
1.00484
1.08285
-0.78893
-0.88374
-0.696415
-0.777035
-0.583131
-0.700626
1.32538
1.30429
1.31726
1.35465
1.40179
1.38587
1.38225
1.38604
1.39069
1.49758
1.50018
1.44975
1.18482
1.27094
1.03876
1.18559
1.35383
1.38442
1.45396
-1.26544
-1.65517
-2.50205
-2.08831
-1.01837
-1.11735
-1.23147
-1.01892
-0.868328
-0.935663
-0.764379
-0.870187
-1.14728
-1.25504
1.50169
1.44753
1.45833
1.45272
1.51782
1.45782
1.46853
1.51763
1.56263
1.58829
1.68687
1.34039
1.43576
1.51179
1.49512
1.13877
1.26334
-1.48777
-1.41887
-1.63529
-1.23529
-1.0805
-1.10418
-1.14917
-1.00639
-1.07073
-0.94277
-1.01941
-0.854802
-1.19507
-1.10108
-1.0743
-1.11799
-1.22095
1.56621
1.62293
1.69888
1.55629
1.73539
1.73041
1.76217
1.78523
1.56432
1.77351
1.61188
1.73776
-0.818286
-0.723359
-0.941438
-0.594511
-0.698845
-0.564795
-1.09623
-1.10558
-0.746696
-0.756886
-1.02339
-1.12689
-1.03855
-1.07752
-1.2413
-1.17213
-1.05111
-0.753362
1.77587
1.78989
1.94076
1.86865
1.91321
1.88575
1.87266
-0.39565
-0.3994
0.0270229
-0.357131
-0.0568964
-0.411637
-0.344952
-1.40086
-1.31491
-1.08212
-1.21439
-1.15654
-1.51065
-1.48585
-1.19809
2.06693
2.18179
2.01556
2.06485
1.94668
2.02987
0.311261
0.738011
0.0737339
0.32741
-0.160632
0.14516
-1.13412
3.71427
4.06648
2.31321
2.39265
2.18866
2.31074
2.11131
2.20099
1.14651
1.45206
0.805878
1.13704
0.417221
0.792278
2.57829
3.13386
2.53367
2.62148
1.88876
2.07555
2.37378
2.73856
3.01082
2.74783
3.21732
2.65006
2.52441
2.40083
2.4726
2.29171
2.39315
1.90371
1.44057
1.529
0.981367
1.35549
2.28336
2.92125
2.659
2.62048
2.17913
2.20491
2.79785
2.67985
2.70127
2.67879
2.58135
2.59597
2.47899
2.58922
1.79158
2.03784
1.56952
1.77206
2.39691
2.65486
2.62636
2.64327
2.15828
2.3597
2.76878
2.6346
2.67425
2.59432
2.66908
1.84489
2.12287
2.62687
2.97725
2.88837
2.53049
2.56601
3.09548
3.05849
2.63763
2.55824
)
;

boundaryField
{
    movingWall
    {
        type            zeroGradient;
    }
    fixedWalls
    {
        type            zeroGradient;
    }
    frontAndBack
    {
        type            empty;
    }
    defaultFaces
    {
        type            empty;
    }
}


// ************************************************************************* //
