/*--------------------------------*- C++ -*----------------------------------*\
  =========                 |
  \\      /  F ield         | OpenFOAM: The Open Source CFD Toolbox
   \\    /   O peration     | Website:  https://openfoam.org
    \\  /    A nd           | Version:  8
     \\/     M anipulation  |
\*---------------------------------------------------------------------------*/
FoamFile
{
    version     2.0;
    format      ascii;
    class       volScalarField;
    location    "0.016";
    object      p;
}
// * * * * * * * * * * * * * * * * * * * * * * * * * * * * * * * * * * * * * //

dimensions      [0 2 -2 0 0 0 0];

internalField   nonuniform List<scalar> 
424
(
3.33897e-06
0.0581421
0.0135136
0.10873
0.09732
0.247657
0.0933631
0.0427247
0.276911
0.49308
0.465715
0.477826
0.000822452
-0.158381
0.505595
0.747231
0.503342
0.508637
-0.424612
-0.191244
0.746509
0.999938
0.669333
0.670012
-0.677052
-0.439436
-0.372622
-0.387124
0.98577
1.26247
1.4641
1.52959
0.848519
0.846646
-3.52291
-0.891915
-1.11075
-1.38381
-0.67979
-0.412513
-0.41737
1.22924
1.4197
1.51673
1.41621
1.00733
1.00498
-2.8892
-2.66235
-0.890064
-1.12274
-1.17758
-0.57855
-0.579666
1.43327
1.47482
1.03498
1.03134
-2.28047
-1.14135
-0.76346
-0.761216
1.5204
1.6753
-1.06411
-0.630426
-0.952538
-0.951801
1.9228
1.70803
-0.0250698
-0.606584
-1.02703
-1.05129
2.1784
1.93532
1.88582
1.89807
0.723465
0.00397521
4.3735
2.40074
1.4689
2.10311
2.68332
5.2434
2.87358
2.60945
2.17619
1.93745
1.94275
0.728865
-0.38184
3.94545
2.39397
1.45459
2.07999
2.56831
4.52581
2.63212
2.62039
2.10114
2.10186
-0.164317
-0.407548
2.29059
2.28825
0.389753
-0.164607
2.48707
2.49171
0.973888
0.389209
2.58173
2.6126
1.55303
0.972817
1.80615
1.54795
1.8241
0.129162
0.0382887
0.047795
0.0716287
0.0897129
0.163154
-0.0294236
0.00966468
0.219713
0.310848
0.326429
0.151066
0.173897
0.214481
0.330782
0.300184
0.292532
0.438801
0.449646
0.440658
0.0572069
-0.00105064
0.0653016
0.0347471
-0.0210026
-0.0640975
-0.0453715
-0.160166
-0.0826299
-0.186888
-0.00413117
0.0439207
0.0716084
0.116433
0.29651
0.169704
0.361219
0.351734
0.483669
0.508551
0.579243
0.508157
0.595014
-0.0400763
-0.0412126
-0.18632
-0.208036
-0.234102
-0.263686
-0.271932
-0.0520142
-0.277633
-0.0958595
-0.224911
0.639626
0.636058
0.748415
0.781016
0.675449
0.781916
-0.297015
-0.2853
-0.4416
-0.339142
-0.400294
-0.373089
-0.349197
0.884092
0.884021
0.983759
0.958682
1.05328
0.852251
0.943867
-0.548361
-0.675275
-0.503578
-0.556431
-0.419499
-0.515652
1.13245
1.14731
1.20656
1.21296
1.27298
1.2206
1.10988
1.18398
1.00579
1.08365
-0.793087
-0.886838
-0.698894
-0.781594
-0.584521
-0.703152
1.32531
1.30338
1.31581
1.35656
1.39473
1.37657
1.37432
1.38318
1.38809
1.48843
1.49367
1.44901
1.18905
1.27352
1.04717
1.1891
1.35493
1.38563
1.4541
-1.26681
-1.65537
-2.50451
-2.0978
-1.02161
-1.11885
-1.23058
-1.01992
-0.874858
-0.943495
-0.768169
-0.875718
-1.1484
-1.26012
1.49882
1.44504
1.45565
1.44989
1.51313
1.45416
1.46836
1.51842
1.5605
1.5861
1.68144
1.33999
1.43177
1.51425
1.49338
1.15076
1.26731
-1.49252
-1.42389
-1.64609
-1.23429
-1.08804
-1.10852
-1.15453
-1.01491
-1.07737
-0.94881
-1.02736
-0.859212
-1.19924
-1.10382
-1.07592
-1.12103
-1.22643
1.56418
1.6191
1.69316
1.55692
1.73157
1.72654
1.75484
1.77896
1.56542
1.76606
1.61094
1.72849
-0.82976
-0.727957
-0.952369
-0.599601
-0.699614
-0.565219
-1.10409
-1.10984
-0.746319
-0.757688
-1.03604
-1.13502
-1.03971
-1.08042
-1.2483
-1.17599
-1.05659
-0.755574
1.77354
1.78684
1.93794
1.86227
1.90607
1.87435
1.86686
-0.400438
-0.403794
0.0233307
-0.358571
-0.0599741
-0.408628
-0.347152
-1.40464
-1.3147
-1.08878
-1.221
-1.16415
-1.52517
-1.49293
-1.20125
2.06306
2.17857
2.00984
2.06148
1.94085
2.02491
0.30823
0.733222
0.0729427
0.322985
-0.161307
0.142786
-1.12878
3.70905
4.05799
2.31075
2.38977
2.18719
2.30834
2.10726
2.1992
1.1404
1.44704
0.801567
1.13174
0.413921
0.788357
2.57332
3.13086
2.53
2.61536
1.88506
2.07174
2.37265
2.73019
3.00461
2.74378
3.20985
2.6436
2.52042
2.39884
2.47214
2.28982
2.39096
1.90052
1.43073
1.52126
0.976179
1.3482
2.27978
2.91753
2.65865
2.61874
2.17125
2.1994
2.79565
2.67122
2.69583
2.67846
2.5803
2.59551
2.4783
2.58776
1.78257
2.02965
1.56142
1.76323
2.3905
2.64969
2.62895
2.64409
2.14795
2.35143
2.76204
2.6197
2.68206
2.59916
2.67183
1.83003
2.11221
2.62215
2.97097
2.87825
2.52775
2.5657
3.09953
3.0544
2.63002
2.54232
)
;

boundaryField
{
    movingWall
    {
        type            zeroGradient;
    }
    fixedWalls
    {
        type            zeroGradient;
    }
    frontAndBack
    {
        type            empty;
    }
    defaultFaces
    {
        type            empty;
    }
}


// ************************************************************************* //
