/*--------------------------------*- C++ -*----------------------------------*\
  =========                 |
  \\      /  F ield         | OpenFOAM: The Open Source CFD Toolbox
   \\    /   O peration     | Website:  https://openfoam.org
    \\  /    A nd           | Version:  8
     \\/     M anipulation  |
\*---------------------------------------------------------------------------*/
FoamFile
{
    version     2.0;
    format      ascii;
    class       surfaceScalarField;
    location    "0.016";
    object      phi;
}
// * * * * * * * * * * * * * * * * * * * * * * * * * * * * * * * * * * * * * //

dimensions      [0 3 -1 0 0 0 0];

internalField   nonuniform List<scalar> 
662
(
-1.91252e-05
1.50418e-05
4.08283e-06
1.92665e-05
-3.83918e-05
-8.20231e-05
3.38903e-05
6.31746e-05
-1.61561e-05
2.0239e-05
-0.000141062
7.83051e-05
9.77785e-06
-4.81696e-05
8.71047e-05
-6.93706e-05
-2.09045e-05
4.11435e-05
-0.000167992
3.67085e-05
1.69558e-06
-4.98652e-05
1.95452e-06
-0.000113857
-4.23596e-06
0.000116138
-3.22036e-05
3.41581e-05
0.000152045
-8.58451e-05
5.22178e-05
-1.10743e-05
-0.000171025
4.72788e-06
-7.719e-07
-4.90933e-05
1.09108e-06
-0.000109289
-5.65913e-06
-3.11125e-05
5.40337e-05
-1.8159e-06
0.000181639
-4.06675e-05
-0.000169019
-2.77749e-06
-2.24212e-06
-4.68512e-05
3.45666e-06
-9.6544e-05
-1.62013e-05
-2.76559e-05
5.37357e-05
2.97927e-07
0.000184724
-4.90139e-06
-1.3436e-06
0.000115497
-0.000115696
1.5419e-06
3.26316e-05
-3.39752e-05
-0.000164447
-6.81461e-06
-3.82932e-05
-8.558e-06
-2.06274e-05
-1.76658e-05
-1.59426e-05
-4.68477e-06
4.52488e-06
-8.24085e-05
-1.86604e-05
-2.3131e-05
-0.000140305
-0.000757828
0.000898133
5.69568e-05
-3.22111e-06
8.7008e-05
-3.00512e-05
-5.32968e-05
0.000185282
-2.60548e-07
-4.66162e-07
0.000112723
3.24029e-06
3.21654e-05
-0.000141864
-3.11407e-05
-8.96309e-05
-6.98987e-05
-4.15304e-05
-6.40432e-05
2.06401e-05
-2.53249e-05
3.19753e-06
-7.20055e-05
-1.36005e-05
-1.99335e-05
-0.000384101
0.000703481
-0.00107721
-0.000952437
0.00185057
0.000202506
-2.04451e-05
0.000282044
-0.000109589
-0.000155354
-3.36963e-06
0.00010004
1.60529e-05
2.87958e-05
-0.000108276
8.73857e-05
2.52299e-05
-5.05548e-05
-2.27343e-07
-3.54068e-07
-7.14241e-05
-2.01609e-05
0.0013479
-0.00159686
-0.000105463
0.00195603
-3.87388e-06
8.70236e-05
1.68901e-05
2.49219e-05
-0.000183164
0.000100118
-6.15996e-05
1.10448e-05
0.00160244
-0.000359996
0.00198884
-3.28119e-05
-2.68904e-06
7.48944e-05
1.48182e-05
2.22328e-05
-6.3858e-05
2.25845e-06
-0.000211953
3.98334e-05
0.00198708
1.76296e-06
0.00169553
-0.000125908
-5.51065e-06
2.97617e-05
5.06434e-05
1.67222e-05
-6.32176e-05
-6.40457e-07
-0.000216118
6.42418e-06
-1.08511e-07
-0.000104991
0.000101759
3.34135e-06
-2.9678e-05
2.95695e-05
0.00195725
2.98353e-05
0.00171629
-1.89987e-05
-0.00180429
0.000949966
0.000854319
-6.37968e-05
5.792e-07
0.00191318
4.40661e-05
0.00187518
3.8002e-05
7.08935e-05
0.000155001
0.000794966
9.60199e-05
5.89808e-05
3.22231e-05
-0.000216538
-2.20312e-07
-4.01277e-07
-0.000105697
1.10684e-06
-3.00792e-05
0.00169705
4.90811e-05
-0.000178897
-7.86998e-06
4.19194e-05
0.000144848
-0.00135669
0.000780465
0.00143055
-0.000227572
1.16131e-05
0.00165676
8.43583e-05
0.0015717
0.000123061
0.000285898
0.000407677
0.00116775
0.000308125
0.000158533
0.000112776
-7.83085e-08
-0.000104683
-9.35172e-07
-3.01574e-05
-0.000186384
-1.51958e-06
9.006e-06
-5.50495e-05
4.71795e-05
3.90305e-07
-0.000102863
-2.21091e-06
-2.9767e-05
-0.000170466
4.8253e-06
-2.0743e-05
-5.6569e-05
1.50404e-06
-9.32144e-05
-1.11525e-05
-2.8263e-05
-0.000147754
7.43923e-06
-3.01513e-05
-5.17437e-05
7.97161e-06
-4.25832e-05
-5.86028e-05
-2.02914e-05
-0.000132355
4.34453e-06
-1.97437e-05
-4.43046e-05
3.77355e-06
-1.97051e-05
-0.000116423
-3.996e-05
-3.61865e-05
0.000461309
-0.000383004
-0.000129735
0.00019291
0.000331574
0.000123539
-0.000881357
0.000480521
0.000400837
-0.000495363
-0.000385994
-0.000616893
0.000342924
0.000273969
-0.000136372
-0.000691781
0.000196418
-0.000112397
-0.000579384
-0.000341048
0.000228651
0.000193818
-0.000576822
-0.000587604
0.000781422
-0.000973598
3.68365e-05
-0.000616221
-0.000936762
-0.000540113
-9.30614e-05
-0.000523159
-0.000345284
-0.000438345
-0.000380366
0.000503905
-0.00073263
0.00113347
-4.8792e-05
0.000106189
0.00102728
0.000449113
0.00041806
9.137e-05
0.000357743
0.000391731
-0.000117761
0.000483101
-0.000438993
0.000321231
-0.000575365
-0.000378947
-0.000150296
3.41581e-05
0.000198302
-0.000738416
-0.00073846
-0.00126162
-0.000733688
-5.30787e-05
-0.00120854
-0.000444004
-0.000497083
-0.000221546
0.000639606
0.000805731
0.00116347
0.000598938
0.000221476
0.000941999
0.000374166
0.000108934
0.000595643
0.000171561
0.000149671
0.000280495
3.39752e-05
0.000111628
-0.000845316
-0.00109691
-0.000848094
2.72142e-05
-0.00112413
-0.000513285
-0.00048607
-0.000158213
0.000757152
0.000783785
0.00075225
0.000407082
0.000188561
0.00119087
0.000282037
0.000470597
1.07395e-05
-0.000858833
-0.00111339
-0.000865648
-0.00116934
5.59498e-05
-0.000761214
-0.000408122
-0.000504731
-0.000448781
0.000720382
3.18687e-05
0.000720121
0.00120328
-1.2412e-05
0.00123515
0.000473838
0.000461426
-0.000304683
-0.000560965
-0.0010659
-0.000867952
-0.000197946
-0.000592106
-0.000359826
-0.000508126
0.000365655
-0.000563601
-0.000646133
0.000238012
-0.000280479
-0.000462382
-0.00022437
0.000845555
-0.000125434
0.00082511
0.00130439
-6.92404e-05
0.00117895
0.000477479
0.000408238
0.000285578
-0.00042562
0.000140043
-0.000278023
-0.000637849
-0.000125552
-0.000300068
0.000324392
-0.000394291
-0.000267714
-0.00077584
5.54658e-05
-0.000831305
-0.000582383
-0.000118951
-0.000275339
-0.000182995
-9.56088e-05
-0.000364412
8.39335e-05
-0.000224369
-0.000224724
-0.00014079
-0.000149373
-7.49966e-05
-0.000274925
-0.000124682
-0.000150243
0.00139511
-0.00155047
0.00199806
-0.000602947
0.000920853
-0.000676008
0.000805152
1.99578e-05
0.000695563
-0.000854905
-0.000767548
0.000787506
0.0012409
-6.19488e-05
0.000473355
0.000425129
0.00036318
0.000473459
-0.00132836
0.00132532
-0.000851857
0.000457398
-0.00058208
-0.00015733
-0.000425053
9.27175e-05
-0.000368057
0.000738588
-0.00116364
-0.000463666
-0.000404568
-0.000177512
-0.000363548
-0.000491783
8.72155e-05
2.11532e-05
-0.000512936
-0.000232375
9.15849e-05
-0.000307372
0.000457615
-0.000370399
-2.01609e-05
-0.00224842
0.00164548
-0.000923108
0.000969469
-0.000723084
-0.000200024
0.000609474
0.00114466
-0.000357156
-0.000183701
0.000603935
-0.000130579
0.000246778
0.000377998
0.000247418
0.000572367
-5.12904e-05
-0.000521077
-0.000145739
-0.000706118
-0.000868822
-0.000296455
0.000256282
-0.000439983
-0.000449836
-0.000792787
-0.000370854
-0.000970299
-0.000949146
-0.000734402
-0.000694568
-7.77429e-05
-0.000871403
-0.000460858
-5.20785e-05
-0.000538601
-0.000239071
-0.000131328
-0.00029115
-2.95695e-05
-0.000795957
0.000595932
-0.000847247
0.00120541
0.0010795
-0.00030304
-0.000544207
0.000525896
-0.000828936
0.000446179
-0.000199401
6.19617e-06
0.000778691
-0.000252795
0.000257614
0.00027718
7.77792e-05
0.000361538
-0.000103923
6.50827e-05
0.000200661
-0.000194464
-0.000249176
-0.000184093
-0.000398103
0.000145309
-0.000114811
-0.000756592
-0.000809379
-0.000802955
-0.000408054
-0.000130547
-0.00116465
-0.000287808
-0.000418356
0.000171366
-0.000715573
0.00125086
0.00123187
-0.000475246
-0.00035369
-0.00119082
-0.000356184
-0.000709874
0.000145145
-6.73656e-05
-4.93197e-05
-0.000233413
0.000337336
-0.000192027
1.67222e-05
-4.71795e-05
-0.000854058
5.11031e-05
-0.000854278
-0.00112842
-3.62246e-05
-0.00107732
-0.000417249
-0.000453474
0.00121286
1.90058e-05
0.00126194
-0.00112606
-6.47596e-05
-0.00110705
-0.000700868
-0.000765628
0.00115255
0.000277999
0.0023203
-0.000840566
-1.37126e-05
-0.000828953
-0.000941313
-0.000136006
-0.000955025
-0.000454409
-0.000590414
0.00125335
8.59278e-06
0.00133771
-0.00124508
0.000138023
-0.00123648
-0.000786371
-0.000648348
0.00109269
-0.000806792
0.00137069
-0.000840755
1.18021e-05
-0.000727979
0.00120873
0.000128977
0.00133179
0.000524998
-0.00176651
0.00103853
-0.000712328
0.00208302
-0.00160797
0.00104642
-7.89193e-06
0.000798218
-0.000786416
-0.00114521
0.000190188
-0.000346995
-0.000592625
-0.000402437
0.000701406
-0.000572429
-0.00131791
8.14246e-05
-0.000616503
-0.000678499
-0.000597074
-0.000381161
0.000906159
0.00170186
0.00107321
-2.6793e-05
0.000286796
-0.000944488
0.000372058
-3.83283e-05
0.000682106
0.00101975
0.000674214
0.000395976
0.000278238
0.000369184
-0.000596407
0.000249411
-0.000309611
-0.000413589
-0.000164178
-0.000823079
0.000206576
-0.000451021
-0.000616818
-0.000410242
-0.000657604
0.000619276
0.000362146
-0.000448485
0.000138874
-7.93012e-05
-0.000674578
0.000223558
-5.53024e-05
-0.000281333
0.000202032
-3.09582e-06
0.00035905
-0.000206761
-6.7887e-05
-0.000429947
-0.000206389
-0.000358999
0.00015261
-0.000146781
7.88943e-05
5.52509e-05
-0.000414301
-2.02914e-05
3.61865e-05
)
;

boundaryField
{
    movingWall
    {
        type            calculated;
        value           uniform 0;
    }
    fixedWalls
    {
        type            calculated;
        value           uniform 0;
    }
    frontAndBack
    {
        type            empty;
        value           nonuniform List<scalar> 0();
    }
    defaultFaces
    {
        type            empty;
        value           nonuniform List<scalar> 0();
    }
}


// ************************************************************************* //
