/*--------------------------------*- C++ -*----------------------------------*\
  =========                 |
  \\      /  F ield         | OpenFOAM: The Open Source CFD Toolbox
   \\    /   O peration     | Website:  https://openfoam.org
    \\  /    A nd           | Version:  8
     \\/     M anipulation  |
\*---------------------------------------------------------------------------*/
FoamFile
{
    version     2.0;
    format      ascii;
    class       surfaceScalarField;
    location    "0.088";
    object      phi;
}
// * * * * * * * * * * * * * * * * * * * * * * * * * * * * * * * * * * * * * //

dimensions      [0 3 -1 0 0 0 0];

internalField   nonuniform List<scalar> 
662
(
-2.03105e-05
1.61455e-05
4.16509e-06
2.07817e-05
-4.10922e-05
-8.80989e-05
3.59286e-05
6.83158e-05
-1.73855e-05
2.15506e-05
-0.000152204
8.48865e-05
1.04194e-05
-5.15116e-05
9.37781e-05
-7.52349e-05
-2.26139e-05
4.41645e-05
-0.000181052
3.92678e-05
1.72379e-06
-5.32354e-05
2.20361e-06
-0.00012187
-4.69584e-06
0.000124362
-3.42412e-05
3.64448e-05
0.000164468
-9.33041e-05
5.59869e-05
-1.18224e-05
-0.000184027
4.69837e-06
-7.66992e-07
-5.24684e-05
1.15418e-06
-0.000117013
-6.01077e-06
-3.30871e-05
5.77072e-05
-1.72034e-06
0.000196194
-4.35479e-05
-0.000182037
-2.75668e-06
-2.22608e-06
-5.02423e-05
3.65889e-06
-0.000103378
-1.72947e-05
-2.94282e-05
5.7449e-05
2.58203e-07
0.000198885
-4.41199e-06
-1.52522e-06
0.000123344
-0.000123548
1.72968e-06
3.459e-05
-3.61153e-05
-0.000177606
-6.65747e-06
-4.10778e-05
-9.16455e-06
-2.19091e-05
-1.91687e-05
-1.71668e-05
-4.74231e-06
4.83494e-06
-8.81458e-05
-2.00667e-05
-2.45932e-05
-0.000141479
-0.000756497
0.000897976
6.07205e-05
-3.27149e-06
8.98385e-05
-2.91179e-05
-5.1641e-05
0.0001996
-4.56786e-07
-4.22318e-07
0.000120574
3.19156e-06
3.41677e-05
-0.000153318
-3.34526e-05
-9.63148e-05
-7.61714e-05
-4.39851e-05
-6.94965e-05
2.21553e-05
-2.68976e-05
3.45681e-06
-7.68248e-05
-1.47778e-05
-2.11364e-05
-0.000390677
0.000705378
-0.0010712
-0.000953909
0.00185189
0.000217054
-2.07253e-05
0.00029373
-0.000105794
-0.000148588
-3.59048e-06
0.00010694
1.72251e-05
3.05772e-05
-0.000116436
9.46064e-05
2.72888e-05
-5.41864e-05
-2.77611e-07
-3.90907e-07
-7.61562e-05
-2.1414e-05
0.00135493
-0.00160346
-0.000107485
0.00195937
-4.16533e-06
9.2875e-05
1.82302e-05
2.64119e-05
-0.000198015
0.000108868
-6.59418e-05
1.17554e-05
0.00161603
-0.000368589
0.00199296
-3.35889e-05
-2.85573e-06
8.01327e-05
1.5598e-05
2.35562e-05
-6.82642e-05
2.32245e-06
-0.000228844
4.25842e-05
0.00199105
1.90964e-06
0.00171142
-0.000128976
-5.42445e-06
2.96377e-05
5.59195e-05
1.81317e-05
-6.76906e-05
-5.73938e-07
-0.000233014
6.49224e-06
-1.64321e-08
-0.000112383
0.000108945
3.45364e-06
-3.15665e-05
3.155e-05
0.00196113
2.99164e-05
0.00173162
-1.8294e-05
-0.00180573
0.00095013
0.000855597
-6.82511e-05
5.60455e-07
0.00191699
4.41436e-05
0.00187819
3.88003e-05
7.24623e-05
0.000156766
0.000793364
9.93933e-05
5.73729e-05
3.11422e-05
-0.000233736
1.48058e-07
-4.12295e-07
-0.000113125
1.15447e-06
-3.19787e-05
0.00171204
4.9503e-05
-0.000171978
-7.87473e-06
4.15471e-05
0.000138305
-0.00136395
0.000783639
0.00143591
-0.000244778
1.16025e-05
0.00167152
8.46651e-05
0.00158412
0.000126195
0.000292633
0.000416298
0.00116071
0.000321943
0.000151728
0.000108307
-8.58306e-08
-0.000112027
-1.01164e-06
-3.20644e-05
-0.000179479
-1.51402e-06
9.01545e-06
-5.32869e-05
4.54121e-05
4.77949e-07
-0.00010992
-2.58504e-06
-3.15864e-05
-0.000164353
4.6371e-06
-1.97632e-05
-5.48009e-05
1.66129e-06
-9.97377e-05
-1.18439e-05
-2.9925e-05
-0.000142511
7.19284e-06
-2.90353e-05
-5.01638e-05
7.86471e-06
-4.25098e-05
-6.50925e-05
-2.20603e-05
-0.000127553
4.22666e-06
-1.91844e-05
-4.2971e-05
3.91998e-06
-2.01398e-05
-0.000111333
-3.87443e-05
-3.48243e-05
0.00050176
-0.000416874
-0.000139731
0.000208047
0.000362029
0.000132812
-0.000957368
0.000520331
0.000437037
-0.000538511
-0.000418857
-0.000667567
0.000371603
0.000295964
-0.000147236
-0.000750009
0.000211498
-0.000121661
-0.000628349
-0.000367763
0.000246102
0.000210723
-0.000627597
-0.000643911
0.000854634
-0.00106277
4.16031e-05
-0.000669952
-0.00102116
-0.000588329
-0.000100977
-0.000568974
-0.000372459
-0.000473436
-0.000415856
0.000548668
-0.000800807
0.00123784
-5.38268e-05
0.000115798
0.00112205
0.000487401
0.000455364
9.9238e-05
0.000388163
0.000423095
-0.000127131
0.000522333
-0.000471171
0.00034404
-0.000618407
-0.000406909
-0.000160807
3.64448e-05
0.0002136
-0.00080193
-0.000807564
-0.00137654
-0.000797231
-5.82072e-05
-0.00131833
-0.000479447
-0.000537654
-0.000241636
0.000697
0.00088041
0.00126857
0.000653452
0.000241836
0.00102674
0.000404942
0.000117391
0.000646778
0.000184377
0.000159663
0.000301768
3.61153e-05
0.000121069
-0.0009183
-0.00119726
-0.000921057
2.97323e-05
-0.00122699
-0.000554949
-0.000525217
-0.000169706
0.000823158
0.00085703
0.000818746
0.000442088
0.000204691
0.00129912
0.000303498
0.000508189
1.38848e-05
-0.000934942
-0.00121311
-0.000941599
-0.00127477
6.16577e-05
-0.000832296
-0.000442471
-0.000545283
-0.000483626
0.000781818
3.69279e-05
0.000781361
0.00131184
-1.27213e-05
0.00134877
0.00051138
0.000498659
-0.000330189
-0.00061141
-0.00116249
-0.000947838
-0.000214648
-0.000644862
-0.00039172
-0.000556118
0.000397369
-0.000612016
-0.000700118
0.000257647
-0.000302749
-0.000498403
-0.000240756
0.000919947
-0.000138586
0.000899222
0.00142442
-7.56516e-05
0.00128583
0.000515884
0.000440232
0.000308829
-0.000460176
0.000151347
-0.000303187
-0.000694907
-0.000135475
-0.000324701
0.000352819
-0.000428991
-0.000292043
-0.000848162
6.11307e-05
-0.000909292
-0.000633776
-0.000127668
-0.000301323
-0.000197165
-0.000102558
-0.000392914
9.01648e-05
-0.000241567
-0.000241147
-0.000150982
-0.000160712
-8.08551e-05
-0.000296187
-0.000134318
-0.000161869
0.00144146
-0.00159005
0.0020058
-0.000564335
0.000934599
-0.000668861
0.000856605
4.26172e-05
0.000750811
-0.00083924
-0.000832794
0.000875412
0.0013528
-6.69669e-05
0.000520005
0.000458462
0.000391496
0.000559196
-0.00139844
0.00139334
-0.00083414
0.000495433
-0.000629751
-0.000170732
-0.000463045
0.00010048
-0.000401803
0.000808812
-0.00127186
-0.000504361
-0.000438605
-0.000191146
-0.000395493
-0.000532086
9.34802e-05
2.39094e-05
-0.000555995
-0.000248552
9.75703e-05
-0.000329408
0.000491276
-0.000397796
-2.1414e-05
-0.00224377
0.00167943
-0.000850434
0.00101057
-0.000739923
-0.000110511
0.000641984
0.00124747
-0.000372056
-0.000150968
0.000656845
-0.00013684
0.00028479
0.000407093
0.000270253
0.000516492
-1.82014e-05
-0.000498291
-8.49214e-05
-0.000749218
-0.000824844
-0.000308352
0.000306929
-0.000457898
-0.000442289
-0.000866954
-0.000404902
-0.0010581
-0.00103419
-0.000800395
-0.000757811
-8.54224e-05
-0.000948768
-0.000499515
-5.64802e-05
-0.000584937
-0.000257301
-0.000140495
-0.000313781
-3.155e-05
-0.000728309
0.000617798
-0.00074651
0.00125978
0.00113081
-0.000290282
-0.000456229
0.000485429
-0.000775711
0.000492338
-0.000207549
3.44408e-05
0.000730293
-0.000244864
0.000232002
0.000299891
9.23424e-05
0.000339921
-0.000107919
3.15693e-05
0.000227259
-0.000192818
-0.00021503
-0.000183461
-0.000378951
0.000134087
-0.00012232
-0.000826448
-0.000880131
-0.000873639
-0.000443628
-0.000141309
-0.00127008
-0.000310327
-0.000451636
0.000184674
-0.000640902
0.00131548
0.00129719
-0.000438745
-0.000336966
-0.00107965
-0.000337404
-0.00067437
0.000166394
-7.40512e-05
-2.64248e-05
-0.000209885
0.000317805
-0.000183718
1.81317e-05
-4.54121e-05
-0.000929225
5.55858e-05
-0.000929076
-0.0012307
-3.93801e-05
-0.00117511
-0.000450482
-0.000489862
0.00128172
1.54607e-05
0.00133123
-0.00101687
-6.27753e-05
-0.00100141
-0.000665354
-0.000728129
0.00117282
0.000263089
0.00233353
-0.000915876
-1.32005e-05
-0.000904273
-0.00102785
-0.00014726
-0.00104105
-0.000490874
-0.000638134
0.0013259
5.3279e-06
0.00141057
-0.00113247
0.000131058
-0.00112714
-0.000747893
-0.000616834
0.00113911
-0.000846476
0.0014022
-0.000899264
-5.00952e-06
-0.000790957
0.0012634
0.000147169
0.00138959
0.000543115
-0.00181155
0.0010206
-0.0006737
0.0020759
-0.00165983
0.00110503
-8.44376e-05
0.0008665
-0.000871509
-0.00124808
0.00020703
-0.000381581
-0.000640719
-0.000433689
0.000630043
-0.000482874
-0.00120431
7.7171e-05
-0.00057427
-0.00064587
-0.000568699
-0.000299077
0.000842192
0.00177682
0.00116835
-6.33158e-05
0.000296841
-0.000838263
0.000355389
3.92958e-06
0.000783384
0.000993436
0.000698946
0.000444328
0.000254619
0.000381012
-0.000646986
0.000265405
-0.000350145
-0.000445533
-0.000180128
-0.000771383
0.000197114
-0.000415995
-0.000587883
-0.000390769
-0.000590238
0.000594168
0.000403198
-0.000491794
0.000141648
-0.000110782
-0.000633112
0.000217117
-3.89442e-05
-0.000311092
0.000200311
-5.64738e-05
0.000346724
-0.000222638
-8.09892e-05
-0.000410909
-0.000193791
-0.000339949
0.000146157
-0.000168142
8.71529e-05
3.21687e-05
-0.000378893
-2.20603e-05
3.48243e-05
)
;

boundaryField
{
    movingWall
    {
        type            calculated;
        value           uniform 0;
    }
    fixedWalls
    {
        type            calculated;
        value           uniform 0;
    }
    frontAndBack
    {
        type            empty;
        value           nonuniform List<scalar> 0();
    }
    defaultFaces
    {
        type            empty;
        value           nonuniform List<scalar> 0();
    }
}


// ************************************************************************* //
