/*--------------------------------*- C++ -*----------------------------------*\
  =========                 |
  \\      /  F ield         | OpenFOAM: The Open Source CFD Toolbox
   \\    /   O peration     | Website:  https://openfoam.org
    \\  /    A nd           | Version:  8
     \\/     M anipulation  |
\*---------------------------------------------------------------------------*/
FoamFile
{
    version     2.0;
    format      ascii;
    class       volVectorField;
    location    "0.088";
    object      U;
}
// * * * * * * * * * * * * * * * * * * * * * * * * * * * * * * * * * * * * * //

dimensions      [0 1 -1 0 0 0 0];

internalField   nonuniform List<vector> 
424
(
(-0.00293622 -0.000190007 6.81216e-26)
(-0.0146521 0.000961577 0)
(-0.0131024 0.00276779 2.04598e-23)
(0.000179605 0.00315107 -1.16711e-24)
(-0.0473551 0.00514746 -2.47658e-23)
(-0.0230457 0.00084454 -3.38785e-23)
(-0.00299443 0.0138303 3.23469e-24)
(-0.00099536 0.015506 -7.93826e-25)
(-0.0687384 0.00259474 -3.61314e-23)
(-0.0257661 0.000296804 3.1098e-23)
(-0.0703259 0.00228288 9.63787e-23)
(-0.0240388 0.000465985 0)
(-0.00519777 0.0503257 1.16753e-24)
(-0.000963652 0.0244887 0)
(-0.0744427 0.000564816 3.30263e-23)
(-0.025582 -4.07924e-05 1.75111e-23)
(-0.0590511 0.000689221 0)
(-0.0196488 7.81015e-05 0)
(-0.000341382 0.0271142 0)
(-0.00267694 0.073265 -2.78434e-23)
(-0.073405 4.81251e-05 3.49547e-23)
(-0.0258216 -0.000338613 -1.87546e-23)
(-0.0573218 0.000236503 0)
(-0.019638 5.60108e-05 0)
(1.31929e-05 0.0260444 1.30696e-23)
(-0.000172599 0.0781355 2.51263e-23)
(-0.0023337 0.0684533 -3.74645e-23)
(-0.000418223 0.0233109 -3.89039e-23)
(-0.0750866 -0.000327183 5.88744e-23)
(-0.0232417 -0.000848012 0)
(-0.0150337 -0.000969419 -1.31699e-22)
(-0.00303884 0.000215715 0)
(-0.0530536 -1.92105e-05 -1.05689e-22)
(-0.0180557 3.82493e-05 9.88302e-23)
(-0.0222842 0.0479302 6.83822e-23)
(0.000239871 0.026801 0)
(0.000145883 0.0295885 -2.27069e-22)
(0.00335075 0.0631455 2.33921e-22)
(8.24677e-05 0.0746662 2.79495e-23)
(-0.000419356 0.0601159 3.92266e-24)
(-6.7756e-06 0.0199989 -3.85032e-24)
(-0.0699972 -0.00256862 -1.05446e-22)
(-0.0489928 -0.00549416 1.33518e-22)
(-0.0141029 -0.00310155 0)
(0.000224068 -0.00336418 -2.9552e-22)
(-0.0494754 -0.000265433 3.47001e-22)
(-0.0162229 -3.37427e-05 0)
(-0.106049 0.152678 -1.89065e-22)
(0.809203 0.0278417 -5.01856e-23)
(-0.000696196 0.0781786 -1.62201e-23)
(-0.00573081 0.0866586 0)
(-0.00507353 0.16685 -3.61594e-24)
(-0.0002445 0.0579457 0)
(-4.43911e-05 0.0199182 0)
(-0.0040005 -0.0151981 5.94385e-23)
(-0.00125643 -0.0170693 2.58428e-22)
(-0.0531168 -0.000629315 0)
(-0.0174759 -0.000155198 0)
(0.405639 0.118729 1.41482e-22)
(0.861377 -0.00378849 -1.19167e-23)
(0.000144677 0.0544646 -9.27303e-23)
(-8.89674e-06 0.0187232 8.78982e-23)
(-0.00671243 -0.0544277 0)
(-0.0010417 -0.02681 0)
(0.551439 0.0129209 1.56434e-22)
(0.882731 -0.00213942 0)
(0.000408104 0.0516102 -7.97502e-23)
(9.87665e-05 0.0174754 7.33891e-23)
(-0.000335117 -0.0292969 6.02646e-23)
(-0.00298283 -0.07903 -1.8595e-23)
(0.880718 -0.00128592 -1.38277e-23)
(0.626377 0.00206135 -1.15916e-22)
(-0.00228602 0.0558802 0)
(-0.000204674 0.0209853 0)
(7.71689e-05 -0.0288871 4.72765e-23)
(-0.000366265 -0.0834875 1.91048e-23)
(-0.00189941 -0.0659019 -3.97209e-22)
(-0.000343535 -0.0224368 0)
(0.879097 -0.000317033 1.30633e-23)
(0.637005 -0.000768032 -4.91207e-23)
(0.826678 -0.0267487 0)
(0.000338166 -0.0288254 -9.09961e-23)
(0.881774 0.0014074 0)
(0.886712 0.00204224 0)
(0.86584 0.00377292 0)
(-0.019522 -0.0491257 0)
(0.00355481 -0.0683083 -4.80777e-22)
(0.000174796 -0.0308338 5.95672e-22)
(0.000290599 -0.0821774 4.36576e-23)
(-0.000559844 -0.0577275 0)
(-3.69081e-05 -0.0192449 0)
(0.639157 -0.000725824 -2.08443e-23)
(-0.104736 0.00186898 -4.20516e-23)
(0.447584 -0.115196 9.64676e-22)
(-0.000518013 -0.0839591 -8.91269e-23)
(0.641641 0.00131802 -1.2372e-22)
(0.643165 -0.00139844 2.57371e-22)
(0.570046 -0.010839 -1.24185e-21)
(-0.1084 -0.154019 -1.80905e-22)
(-0.00644841 -0.179398 7.01051e-22)
(-0.00653523 -0.090513 -5.69201e-22)
(5.53137e-05 -0.0573296 -3.09734e-23)
(3.52024e-05 -0.0196931 3.00379e-23)
(-0.0932052 5.79671e-05 0)
(-0.0405074 -4.34183e-05 -4.09736e-23)
(0.000387591 -0.0594267 -1.38401e-22)
(6.08914e-05 -0.020491 -1.31589e-22)
(-0.0956107 -0.000318147 2.40235e-23)
(-0.0338638 6.27966e-06 0)
(-6.40009e-05 -0.0579806 9.95371e-23)
(8.55326e-05 -0.0199462 -9.48901e-23)
(-0.0893453 -0.000141652 -2.48829e-22)
(-0.0351831 -0.000111242 -2.27469e-23)
(-0.00299843 -0.0605839 0)
(-0.00022043 -0.023498 0)
(-0.0824071 0.000297713 1.35986e-22)
(-0.0326822 -6.71747e-05 0)
(-0.0935473 -0.0016189 0)
(-0.0294516 -9.46669e-06 1.21641e-22)
(-0.0350899 -0.000114703 0)
(-0.0797323 0.017104 2.51297e-24)
(-0.0236562 0.0118481 0)
(-0.0636809 0.0352367 0)
(-0.0121548 0.0248785 -1.84934e-24)
(-0.129977 0.107082 2.70492e-23)
(-0.157667 0.0741228 4.77138e-22)
(-0.0864192 0.136107 3.60156e-23)
(-0.107478 0.11659 -1.33056e-23)
(-0.154489 0.0625106 -8.0291e-22)
(-0.159261 0.0373132 -2.63921e-23)
(-0.1365 0.0285388 -7.20605e-22)
(-0.122902 0.028831 -1.92554e-22)
(-0.146447 0.0477397 -6.42767e-22)
(-0.166193 0.0511779 8.39112e-22)
(-0.173064 0.0243202 -6.00142e-22)
(-0.18049 0.026822 1.08108e-22)
(-0.112014 0.00669867 1.81304e-22)
(-0.165211 0.00739679 1.24485e-21)
(-0.109432 0.00549314 2.62646e-22)
(-0.136146 0.00295641 3.40128e-22)
(-0.0367952 0.0645069 2.99008e-23)
(-0.103697 0.113236 0)
(-0.0718245 0.0680873 -2.4751e-23)
(-0.101903 0.0915947 0)
(-0.0735694 0.138996 5.29981e-23)
(-0.075086 0.148147 -1.36481e-22)
(-0.0193366 0.0863869 -2.96698e-25)
(-0.0501188 0.165081 2.19493e-22)
(-0.0697593 0.133919 -4.78422e-23)
(-0.0472398 0.157529 2.86957e-22)
(-0.0615909 0.10386 -5.76488e-23)
(-0.0975243 0.0922587 -2.77386e-23)
(-0.108765 0.0662131 0)
(-0.0950897 0.0359808 1.22423e-22)
(-0.0232888 0.00244746 -2.99283e-22)
(-0.065453 0.0141522 3.45285e-22)
(-0.16069 0.00870844 0)
(-0.179709 0.00904306 0)
(-0.188163 0.00221193 -8.63638e-22)
(-0.124783 0.00072285 -1.54644e-21)
(-0.181816 0.00212983 2.80048e-21)
(-0.102248 0.00153802 7.08788e-22)
(-0.144519 -0.000259793 7.39603e-22)
(-0.0349225 0.131606 -2.11252e-23)
(-0.0443211 0.153553 2.05777e-23)
(-0.0339304 0.17806 -2.34684e-22)
(-0.0064015 0.118415 7.7465e-22)
(-0.0204744 0.182829 1.15939e-22)
(-0.0260385 0.15076 4.82123e-23)
(-0.0147849 0.168129 -3.00195e-22)
(-0.0335776 0.0890481 1.67343e-22)
(-0.0206284 0.131577 -1.1726e-21)
(-0.0144274 0.0642293 0)
(-0.00246986 0.0228902 0)
(-0.170578 -0.000968546 8.75421e-22)
(-0.187707 -0.000297738 -2.61182e-21)
(-0.127502 0.000711343 -9.19982e-22)
(-0.178982 0.000117982 2.91445e-21)
(-0.100097 -4.62387e-05 -1.15726e-21)
(-0.145377 -0.000447481 1.4386e-21)
(-0.00533173 0.164868 -6.92778e-22)
(-0.0064998 0.18332 5.23055e-22)
(0.00121433 0.128622 0)
(-0.00490277 0.160078 0)
(-0.00167917 0.187763 -1.05471e-21)
(-0.00396857 0.103317 8.01919e-22)
(-0.000375951 0.133327 0)
(-0.17038 0.00217822 8.74409e-22)
(-0.185668 0.001381 1.97117e-22)
(-0.131552 0.000716777 1.261e-21)
(-0.178106 -0.00155612 -1.91414e-21)
(-0.183752 -0.00332112 -2.01379e-21)
(-0.096318 -0.000686808 -2.26911e-21)
(-0.136441 -0.000602632 9.84815e-22)
(0.00381304 0.168856 7.66838e-22)
(0.000864429 0.122818 -8.12002e-22)
(-0.00031274 0.181909 2.55928e-21)
(0.00248019 0.187943 -1.97768e-21)
(-0.000652051 0.105072 0)
(0.000628263 0.145956 0)
(-0.162263 -0.00625051 -1.45071e-21)
(-0.181826 -0.00877914 0)
(-0.18036 -0.0274054 1.76531e-21)
(-0.114266 -0.00652883 1.05929e-21)
(-0.17028 -0.0355172 -1.96641e-21)
(-0.171155 -0.032846 -3.24545e-21)
(-0.154732 -0.00740735 1.95861e-21)
(-0.161121 -0.0241944 1.79043e-21)
(-0.0954484 -0.000730655 -2.94385e-22)
(-0.122675 0.000427559 0)
(-0.000571307 0.168874 -4.27417e-22)
(-0.00393658 0.132696 0)
(0.0011336 0.180574 0)
(-0.00038123 0.186297 3.26982e-22)
(-6.54139e-05 0.0991033 0)
(0.00167036 0.144388 0)
(-0.148563 -0.0653407 0)
(-0.161663 -0.0580389 -2.1617e-21)
(-0.162014 -0.0621517 2.9199e-21)
(-0.134407 -0.0871566 0)
(-0.0786448 -0.0163426 0)
(-0.127569 -0.0277475 -1.22212e-21)
(-0.146689 -0.035227 -2.28638e-21)
(-0.134202 -0.0691475 2.80832e-21)
(-0.146145 -0.0820315 -1.4793e-22)
(-0.0647451 -0.0339416 -7.03441e-22)
(-0.0248714 -0.0119635 0)
(-0.0137942 -0.0257318 2.1484e-21)
(-0.13647 -0.0334229 7.37919e-22)
(-0.140755 -0.056663 -1.83379e-21)
(-0.0868083 -0.00147804 -1.29961e-21)
(-0.11818 -0.0266909 1.85713e-21)
(-0.117378 -0.0719279 8.6123e-22)
(-0.121012 -0.0882664 0)
(-0.104342 -0.102069 1.57276e-21)
(-0.0302052 0.234871 3.19097e-24)
(-0.128204 0.299479 -2.98934e-21)
(-0.141197 0.2238 3.13432e-21)
(0.11856 0.18675 -2.51992e-21)
(-0.015448 0.17195 1.44027e-21)
(-0.0177908 0.139175 -1.74391e-21)
(-0.0481458 0.20791 -8.93421e-22)
(-0.0168484 0.183939 -3.07492e-21)
(0.000772263 0.176801 -7.8775e-22)
(-0.00789493 0.181165 3.18216e-21)
(0.00109409 0.0941249 0)
(0.0022393 0.134328 2.89811e-22)
(-0.0626407 0.199771 4.23152e-21)
(-0.0997076 0.192644 -1.31935e-21)
(-0.107519 -0.119149 4.15217e-21)
(-0.128714 -0.104843 2.4784e-21)
(-0.125954 -0.106708 -3.33255e-21)
(-0.077342 -0.0621166 5.3392e-22)
(-0.0964971 -0.120793 0)
(-0.102262 -0.0866787 2.48067e-22)
(-0.0382329 -0.0629173 -3.0029e-21)
(-0.0847191 -0.141334 -5.84351e-21)
(-0.0226885 -0.0888594 0)
(-0.0698218 -0.142169 2.05127e-21)
(-0.0497003 -0.159884 0)
(-0.0788919 -0.0274559 3.18106e-21)
(-0.0957409 -0.0620456 0)
(-0.0602294 -0.10603 -4.67065e-21)
(-0.0861547 -0.0946142 1.13909e-21)
(-0.017282 -0.00145215 1.35887e-21)
(-0.0507198 -0.00948903 -5.47205e-21)
(-0.105469 0.238431 -5.34549e-22)
(-0.127765 0.202611 0)
(0.00997165 0.194911 1.96851e-21)
(-0.135426 0.1091 -1.29744e-21)
(0.264747 0.0573694 9.57976e-22)
(-0.027337 0.180245 2.01689e-21)
(-0.0485772 0.178462 -2.2714e-21)
(-0.00850179 0.150352 -1.66482e-21)
(-0.0187017 0.1533 2.87485e-21)
(0.000855265 0.0913696 1.34302e-21)
(-0.00632754 0.118255 -8.88795e-22)
(-0.155129 0.01894 0)
(-0.108121 0.126072 -1.91578e-21)
(-0.13949 0.0884279 1.08995e-22)
(-0.146368 0.0485681 3.14563e-21)
(-0.0530427 0.137961 -1.22836e-21)
(-0.08501 0.11389 1.19671e-21)
(-0.0634104 -0.147594 2.24966e-22)
(-0.0629156 -0.162591 5.05551e-22)
(-0.0471757 -0.172973 0)
(-0.0377286 -0.127874 -2.84041e-22)
(-0.00865089 -0.129644 1.90402e-23)
(-0.0279936 -0.178664 -3.58784e-21)
(-0.0307189 -0.154787 1.83877e-21)
(-0.0212041 -0.16754 -2.03165e-21)
(-0.0332077 -0.0926048 3.19134e-21)
(-0.0244247 -0.132069 -2.661e-21)
(-0.0126081 -0.0609833 0)
(-0.00220223 -0.0213964 0)
(-0.053029 0.0573312 -4.54543e-22)
(-0.113838 0.0269368 1.63241e-21)
(0.105246 0.0607377 -6.67999e-22)
(0.37544 0.0176544 1.67353e-21)
(-0.123017 0.0162646 0)
(-0.172582 0.0106477 0)
(-0.0163134 0.11915 -2.08481e-21)
(-0.0331321 0.11446 0)
(-0.163597 -0.00422673 0)
(-0.160852 0.00215942 0)
(-0.00694387 0.0859447 0)
(-0.00615584 0.0972085 -9.49255e-22)
(-0.123091 0.00539139 0)
(-0.121482 0.0338206 -3.18303e-21)
(-0.0434852 0.0642331 0)
(-0.0821219 0.0683807 0)
(-0.09658 0.0406601 2.69347e-21)
(-0.15018 -0.010602 5.6779e-22)
(-0.0119628 -0.182394 2.513e-21)
(-0.0113698 -0.167619 0)
(0.00025255 -0.135177 -4.01939e-23)
(-0.00728748 -0.159293 0)
(-0.0035116 -0.186137 0)
(-0.00453417 -0.102101 -3.52124e-21)
(-0.00281884 -0.132143 3.21295e-21)
(-0.0441249 0.0167196 0)
(0.124829 0.0123442 -1.38807e-21)
(0.375688 0.00255079 0)
(-0.182731 0.00432352 -4.68443e-22)
(-0.153119 0.00878666 1.18142e-23)
(-0.142648 0.0053715 -2.50513e-22)
(-0.172592 0.00599822 1.30656e-22)
(-0.00425767 0.0314645 5.48588e-21)
(-0.0320758 0.0259317 -1.03255e-21)
(-0.0693661 0.0123292 -2.1179e-21)
(-0.0823749 -0.0142281 0)
(-0.0825939 -0.00359425 0)
(0.000298185 0.00911774 1.72035e-21)
(-2.2879e-05 0.0229909 -6.50309e-21)
(-0.063498 -0.00552295 0)
(0.00202328 -0.175053 -5.4429e-22)
(0.000380847 -0.134966 3.98485e-23)
(-0.00164376 -0.179633 -4.63204e-21)
(0.00125196 -0.187524 4.30828e-21)
(-0.00146795 -0.0997901 0)
(0.000229432 -0.143155 -5.3596e-22)
(0.0990932 -0.00268346 0)
(0.363313 -0.00154231 0)
(-0.166797 -0.00193057 4.27497e-22)
(-0.0927937 -0.00224105 -3.64906e-22)
(-0.148394 0.000225629 3.31488e-22)
(-0.182006 0.00674319 -5.56595e-22)
(-0.0244858 -0.000849016 0)
(0.131224 -0.186402 -5.76534e-21)
(-0.150136 -0.226962 9.82751e-21)
(-0.000619288 -0.173005 1.67242e-22)
(-0.00342861 -0.137474 0)
(0.000954989 -0.17922 3.94843e-21)
(-0.00066419 -0.186345 -2.8781e-21)
(0.000625355 -0.0970353 0)
(0.00241494 -0.148323 -1.02843e-21)
(0.0909824 -0.000121601 -3.84593e-23)
(0.357842 -0.00326452 -2.0955e-21)
(-0.189021 -0.00314947 -2.14093e-21)
(-0.101893 -0.000177895 -6.25799e-22)
(-0.15164 0.00168138 5.32877e-22)
(-0.189758 -0.00175636 0)
(0.267642 -0.0533256 -6.96174e-21)
(0.0263782 -0.16661 -6.40575e-21)
(-0.0150104 -0.173318 0)
(-0.0192392 -0.143806 0)
(0.131368 -0.00836384 -3.06327e-21)
(0.383165 -0.0157358 2.61088e-21)
(0.128939 -0.0594239 1.15832e-20)
(-0.0540534 -0.212811 0)
(-0.112194 -0.219812 9.19461e-21)
(-0.0350483 -0.250749 1.60225e-21)
(-0.147575 -0.306097 -2.59642e-21)
(-0.0665399 -0.195538 -1.8033e-23)
(-0.0153804 -0.183525 -3.8379e-21)
(0.000210806 -0.178017 1.65009e-21)
(-0.00636359 -0.180817 6.07318e-21)
(0.00117438 -0.106714 -3.64512e-21)
(0.000157334 -0.145253 2.36684e-21)
(-0.0479145 -0.013828 2.45578e-21)
(-0.169377 0.00266202 3.73796e-21)
(-0.164808 -0.00565766 -3.37347e-21)
(-0.143884 7.09719e-05 2.48791e-22)
(-0.174275 -0.000250888 0)
(-0.0616505 -0.0658555 -3.84541e-21)
(-0.147682 -0.173658 -2.63116e-21)
(-0.0446727 -0.175865 -6.38868e-21)
(-0.0270791 -0.177155 7.5501e-22)
(-0.126358 -0.0150691 0)
(-0.114874 -0.0286261 -9.97056e-22)
(-0.130297 -0.173511 -6.74511e-21)
(-0.0889182 -0.178287 8.70804e-21)
(-0.0734737 -0.13109 6.39506e-21)
(-0.0510661 -0.140302 0)
(-0.00744723 -0.143667 0)
(-0.0175684 -0.147979 -2.51028e-21)
(-0.00140215 -0.0992768 0)
(-0.00755863 -0.121877 0)
(-0.186492 0.000122213 2.82188e-21)
(-0.177037 -0.0053116 -5.44354e-21)
(-0.136607 0.00214877 -2.61904e-22)
(-0.16841 -0.002955 -1.59655e-21)
(-0.155212 -0.0198211 5.16631e-21)
(-0.147628 -0.0742912 -4.46189e-21)
(-0.0183607 -0.117653 1.505e-21)
(-0.0341586 -0.116476 3.62303e-21)
(-0.173418 0.00442164 4.46162e-21)
(-0.155495 0.00194145 -1.78856e-22)
(-0.0429275 -0.0654257 -8.0097e-21)
(-0.0769075 -0.0786356 3.85608e-22)
(-0.109515 -0.0626826 1.41767e-21)
(-0.00735666 -0.0840882 0)
(-0.0080335 -0.0946659 -2.74651e-21)
(-0.137208 -0.00455779 -2.16307e-21)
(-0.157895 0.00805657 1.53814e-21)
(-0.0879515 0.0166485 1.42689e-21)
(-0.00658541 -0.028503 0)
(-0.0340081 -0.0216174 3.56602e-21)
(-0.102336 0.0107547 1.60376e-22)
(-0.093169 -0.00936208 0)
(0.000154897 -0.00962628 0)
(-0.0010951 -0.0231286 0)
(-0.0611987 0.00665153 -3.74767e-21)
(-0.0225736 0.00111852 2.94956e-21)
)
;

boundaryField
{
    movingWall
    {
        type            fixedValue;
        value           uniform (1 0 0);
    }
    fixedWalls
    {
        type            noSlip;
    }
    frontAndBack
    {
        type            empty;
    }
    defaultFaces
    {
        type            empty;
    }
}


// ************************************************************************* //
