/*--------------------------------*- C++ -*----------------------------------*\
  =========                 |
  \\      /  F ield         | OpenFOAM: The Open Source CFD Toolbox
   \\    /   O peration     | Website:  https://openfoam.org
    \\  /    A nd           | Version:  8
     \\/     M anipulation  |
\*---------------------------------------------------------------------------*/
FoamFile
{
    version     2.0;
    format      ascii;
    class       volScalarField;
    location    "20000";
    object      k;
}
// * * * * * * * * * * * * * * * * * * * * * * * * * * * * * * * * * * * * * //

dimensions      [0 2 -2 0 0 0 0];

internalField   nonuniform List<scalar> 
4109
(
0.0294932
0.0310435
0.0297415
0.0310129
0.0317424
0.0314665
0.0319628
0.0301485
0.0330108
0.0325451
0.0325709
0.0333187
0.0298492
0.031691
0.032409
0.0337109
0.0334961
0.03351
0.0338681
0.0325536
0.0298998
0.0313755
0.0314093
0.0345923
0.0346237
0.0350342
0.0295892
0.0316269
0.0298768
0.0348557
0.0335083
0.0328084
0.0313739
0.031291
0.0322224
0.0351654
0.0350532
0.0361742
0.0318921
0.0298468
0.0315746
0.0317703
0.0302765
0.0355139
0.0341217
0.0954852
0.0479425
0.0334854
0.0329018
0.0312444
0.0322424
0.0358538
0.0366372
0.0379046
0.0336108
0.031796
0.0293638
0.0318971
0.0323663
0.033143
0.0328798
0.121515
0.0367272
0.035103
0.0344441
0.041678
0.0870487
0.0337479
0.032768
0.0324855
0.0393814
0.0373379
0.0425474
0.0413715
0.0411864
0.0341542
0.0340536
0.0326714
0.0311612
0.0328958
0.0325823
0.0329289
0.0334804
0.0336153
0.03844
0.0452584
0.100163
0.131057
0.132433
0.0379105
0.0375049
0.0358032
0.0351128
0.0345493
0.0384902
0.0665243
0.0337303
0.0325641
0.0427003
0.0410166
0.0398859
0.0429949
0.043713
0.0432582
0.0434024
0.0352868
0.034766
0.0339335
0.0321076
0.0341328
0.0388484
0.0333687
0.0338817
0.0341181
0.0346738
0.138227
0.0527577
0.0664674
0.089342
0.140038
0.137591
0.0432948
0.0397092
0.0385823
0.036838
0.0361073
0.0354207
0.0344097
0.0669172
0.0344507
0.033811
0.043123
0.0417124
0.0448116
0.0440366
0.0455689
0.0443332
0.035968
0.0356527
0.0355747
0.0337217
0.034816
0.0399957
0.0339473
0.0345554
0.0350242
0.0352688
0.124889
0.0735133
0.140788
0.0934769
0.143848
0.0504135
0.0405643
0.0394826
0.0376552
0.0368704
0.0361798
0.0354499
0.0343818
0.0614507
0.0331608
0.0426388
0.0412535
0.0456743
0.0437598
0.046447
0.0468461
0.0476455
0.0371339
0.0366141
0.0363298
0.0345557
0.0358011
0.0412172
0.0347744
0.0354559
0.0356977
0.0363703
0.0857659
0.156883
0.0884573
0.147548
0.147774
0.0511762
0.038783
0.0397309
0.0378945
0.0361476
0.0370804
0.0356176
0.0672966
0.0340351
0.0409557
0.0420216
0.0451887
0.0433404
0.0464316
0.0480914
0.0477229
0.0507254
0.0379033
0.0376175
0.0376501
0.0361744
0.0360484
0.0414378
0.035504
0.0361264
0.0367111
0.0370907
0.0883313
0.158487
0.154137
0.0931425
0.157233
0.0507825
0.0388934
0.0400826
0.0375246
0.0364924
0.0688104
0.0349183
0.0411787
0.0424252
0.0445454
0.0436488
0.0459791
0.0480246
0.0491898
0.051137
0.053491
0.0391801
0.0385743
0.0383976
0.0372319
0.036913
0.0424661
0.0370112
0.0362538
0.0400883
0.0375824
0.0382753
0.0849212
0.166466
0.0967861
0.161552
0.163443
0.0516361
0.0392032
0.0399782
0.0378968
0.0722143
0.0353532
0.0415114
0.0424203
0.0449574
0.0439933
0.0463103
0.0473383
0.0495491
0.0514384
0.0529531
0.0570317
0.0401947
0.0393395
0.0387301
0.041063
0.0372228
0.042887
0.0374982
0.0414014
0.0391362
0.0387238
0.173625
0.0846458
0.168908
0.100557
0.17357
0.052228
0.178178
0.039002
0.040352
0.0738761
0.0361577
0.0414868
0.0426747
0.0450578
0.0440028
0.0466196
0.0476818
0.0489256
0.0514042
0.0533722
0.0562288
0.0566062
0.0607034
0.0393253
0.0407661
0.0390696
0.0422313
0.042458
0.0379197
0.0437196
0.0391343
0.0404115
0.0397641
0.0849989
0.181542
0.175612
0.0991191
0.179884
0.0529489
0.192185
0.184677
0.201925
0.165711
0.185362
0.156429
0.0883241
0.0370706
0.0403151
0.0423385
0.0432156
0.0439438
0.0454345
0.046757
0.0477076
0.0491797
0.0578432
0.0504672
0.0532129
0.0559856
0.0613238
0.0648614
0.0632742
0.0693733
0.0416365
0.0411542
0.0434469
0.0438745
0.0414032
0.0392331
0.0452264
0.0398999
0.0409902
0.0875179
0.194303
0.181045
0.0528762
0.291805
0.259642
0.201859
0.172462
0.195364
0.221414
0.0754762
0.0759825
0.0811417
0.159978
0.149359
0.151417
0.148046
0.159317
0.150551
0.0387213
0.0452333
0.0452829
0.0459878
0.0606697
0.0470052
0.0479489
0.0493294
0.0507211
0.0577031
0.0522391
0.0552907
0.0651245
0.0617056
0.0681427
0.0678821
0.0765104
0.0808355
0.0429086
0.0436708
0.0450706
0.0450186
0.0427835
0.0421231
0.0402972
0.044924
0.0414816
0.0915429
0.218435
0.302446
0.258241
0.177273
0.194673
0.221846
0.079514
0.0814118
0.0869646
0.0826626
0.085638
0.132774
0.139184
0.139541
0.147218
0.160072
0.240415
0.119249
0.0441237
0.0474635
0.0471607
0.0600608
0.0611583
0.0491738
0.0491162
0.0506093
0.0523905
0.05714
0.0540081
0.0657927
0.0637523
0.0692208
0.0721347
0.0768433
0.0786503
0.0456585
0.0449447
0.0423631
0.0475729
0.0465223
0.0439286
0.0434544
0.0497167
0.0429093
0.0417911
0.0498561
0.0973344
0.294377
0.324317
0.260233
0.176716
0.19758
0.225335
0.0820357
0.0895074
0.0979474
0.087682
0.0919248
0.122685
0.10927
0.0871524
0.0904033
0.129305
0.137202
0.147586
0.158635
0.257691
0.211405
0.0650485
0.0491769
0.049675
0.0593154
0.0612047
0.0502859
0.0506703
0.0523627
0.0541236
0.0560351
0.0663927
0.0639626
0.0696927
0.0728347
0.074904
0.0782349
0.0475254
0.0496678
0.0476117
0.0438726
0.043934
0.0454458
0.0467594
0.0447534
0.0509279
0.0485202
0.169979
0.222118
0.0434372
0.0412709
0.304913
0.257193
0.255513
0.326934
0.265677
0.17739
0.199507
0.230036
0.0861815
0.0808368
0.0934813
0.0994576
0.0972087
0.107371
0.118065
0.0920539
0.0961632
0.127289
0.134558
0.147115
0.162411
0.318294
0.273412
0.319639
0.0649519
0.0524503
0.0511498
0.0581017
0.0604347
0.0523506
0.0522429
0.0538896
0.0560982
0.0628431
0.0655458
0.0683769
0.0715453
0.07466
0.0773511
0.0791724
0.05073
0.0507087
0.0453182
0.0450457
0.0462647
0.0476403
0.0493121
0.0529671
0.0500676
0.0451154
0.0510872
0.0557097
0.31422
0.260681
0.243283
0.192409
0.191702
0.331402
0.261553
0.17987
0.190323
0.209855
0.0906919
0.0845432
0.0826235
0.117015
0.102104
0.106039
0.0975871
0.101434
0.125649
0.133304
0.149907
0.164021
0.0870528
0.350437
0.329259
0.352943
0.0777317
0.0551254
0.0538546
0.0581752
0.0604453
0.0540303
0.0539129
0.0560533
0.0628484
0.0654781
0.0682847
0.0713624
0.0739964
0.0759227
0.0790993
0.0798323
0.0532129
0.054194
0.0469656
0.0469711
0.0482613
0.0496738
0.0508926
0.0548004
0.0517955
0.0508241
0.0469149
0.0479009
0.311106
0.166955
0.230566
0.222496
0.192826
0.334703
0.262779
0.175032
0.195203
0.215467
0.241861
0.0956993
0.0839855
0.0893884
0.0840318
0.103494
0.114226
0.108682
0.12574
0.138973
0.152621
0.160453
0.087941
0.386921
0.37145
0.40565
0.0809136
0.0590823
0.0559648
0.0604227
0.0579751
0.0560393
0.056197
0.062665
0.0653808
0.0709956
0.06797
0.0733245
0.0758573
0.0759436
0.0787373
0.0821518
0.056871
0.056096
0.0573878
0.0489199
0.0487301
0.0508966
0.0524992
0.0535602
0.0530926
0.0487641
0.0504349
0.316673
0.255876
0.144123
0.150031
0.205882
0.197877
0.174268
0.271596
0.331827
0.178324
0.194489
0.211276
0.236283
0.101053
0.0855576
0.0936483
0.0868777
0.0896802
0.110237
0.114315
0.106576
0.127834
0.140724
0.150769
0.164765
0.114272
0.425809
0.426242
0.439881
0.0927242
0.062835
0.0580692
0.0606818
0.0582862
0.058018
0.0632399
0.0653627
0.0704024
0.0681896
0.0741608
0.0760721
0.0781836
0.0808136
0.0838559
0.060124
0.0598697
0.0596107
0.0555849
0.0509801
0.0510868
0.0525645
0.0534746
0.0544421
0.0507345
0.0545773
0.332287
0.280528
0.242757
0.220205
0.125446
0.133328
0.147221
0.189091
0.178081
0.162938
0.112964
0.273096
0.326601
0.331985
0.177865
0.194801
0.225571
0.211583
0.0993951
0.0881184
0.0924775
0.0893791
0.112206
0.119609
0.105151
0.165273
0.130088
0.137725
0.152394
0.113171
0.473182
0.482272
0.505435
0.0599298
0.0994941
0.0645953
0.0611476
0.0607649
0.066695
0.0651655
0.0716397
0.0720622
0.0693426
0.0750061
0.0783802
0.0814368
0.0646472
0.0625503
0.0620266
0.0576443
0.0568252
0.0527315
0.0522501
0.0541413
0.0559709
0.0525818
0.0562099
0.0689927
0.0741641
0.276864
0.245261
0.214982
0.196168
0.120339
0.135278
0.150085
0.170769
0.160963
0.108479
0.0999263
0.0926451
0.0825023
0.0790683
0.316712
0.265745
0.316411
0.271536
0.166291
0.179113
0.192034
0.220965
0.0985759
0.0905874
0.0934058
0.120369
0.112729
0.105503
0.102385
0.152049
0.151899
0.129711
0.141208
0.136869
0.56195
0.530048
0.526577
0.0666851
0.101134
0.0631769
0.0643483
0.0721649
0.0683715
0.0746815
0.0773103
0.0802708
0.0648863
0.0643759
0.059975
0.0586213
0.0573937
0.0549058
0.0544396
0.0561992
0.0607799
0.0546782
0.0761813
0.0696917
0.0729739
0.240222
0.219898
0.193322
0.175527
0.120687
0.137632
0.147274
0.15429
0.11371
0.0996839
0.102293
0.0776867
0.0909418
0.0802071
0.0844412
0.270056
0.251219
0.237679
0.216712
0.160549
0.174382
0.199627
0.149446
0.0968164
0.0934655
0.117314
0.108098
0.113227
0.106384
0.100771
0.142453
0.14388
0.130359
0.109755
0.615732
0.595954
0.586103
0.0834936
0.105991
0.0673841
0.0611325
0.0717543
0.07559
0.0788872
0.0673075
0.0623843
0.0612879
0.0601526
0.0581436
0.0566673
0.0559436
0.0586213
0.0562866
0.0741112
0.0703321
0.211557
0.215162
0.197772
0.17387
0.157331
0.127472
0.135488
0.140605
0.116536
0.110487
0.102395
0.078811
0.0817585
0.0956394
0.0849412
0.0893226
0.224162
0.214856
0.211725
0.196732
0.140615
0.162656
0.171076
0.151435
0.194424
0.0963315
0.12077
0.11463
0.111044
0.10422
0.0994697
0.123612
0.130032
0.131213
0.115792
0.730915
0.687113
0.732913
0.133456
0.070837
0.0790727
0.0747129
0.078153
0.0650864
0.063498
0.0619533
0.0605186
0.0588307
0.0584205
0.0597688
0.0587529
0.0741441
0.0679301
0.194005
0.195429
0.176158
0.155573
0.1426
0.125506
0.129216
0.116374
0.108725
0.101897
0.0777907
0.0812213
0.0959921
0.0856277
0.0902391
0.196333
0.189997
0.172801
0.126195
0.132678
0.142127
0.150054
0.175249
0.112162
0.107061
0.101981
0.117577
0.11505
0.122635
0.126176
0.8555
1.17272
0.321309
0.0750194
0.0880339
0.0781148
0.0665036
0.0650156
0.0628517
0.0610205
0.0603375
0.0622012
0.0711032
0.0691893
0.175154
0.173412
0.156032
0.141084
0.130885
0.119481
0.111175
0.103882
0.0975483
0.0744834
0.0782483
0.0918788
0.0823183
0.0868735
0.171672
0.173263
0.15635
0.127904
0.133963
0.140934
0.12328
0.155992
0.108651
0.104317
0.112294
0.113359
0.118378
0.198995
1.66912
1.61426
0.579457
0.0801012
0.122168
0.0672455
0.0655821
0.0627097
0.0633864
0.0690087
0.0726282
0.0706923
0.156781
0.156541
0.14143
0.129762
0.12095
0.112623
0.105219
0.0989907
0.0758741
0.079843
0.0932561
0.0837555
0.0884257
0.154182
0.154669
0.142085
0.125249
0.129737
0.118804
0.141626
0.106208
0.10896
0.109898
0.112766
4.05699
0.331539
2.33336
2.47983
1.16876
4.49714
0.0682296
0.0658028
0.0670722
0.066807
0.0772208
0.0734344
0.0713263
0.139985
0.140841
0.130337
0.120652
0.112196
0.10549
0.0990715
0.0773421
0.0806351
0.0940963
0.08502
0.088967
0.13751
0.137775
0.13022
0.119148
0.112973
0.127975
0.130351
3.27197
3.60159
0.636205
3.59954
3.58079
4.88549
3.96704
6.43337
0.0691853
0.0659337
0.0704062
0.0706074
0.0943375
0.0744883
0.0709336
0.13114
0.130744
0.120701
0.112466
0.105464
0.0995873
0.0780783
0.0817625
0.094423
0.089892
0.0856632
0.129611
0.122246
0.113346
0.120803
0.12326
0.122457
2.21287
2.86076
3.18081
1.20801
4.51386
3.48148
6.20023
6.25902
0.0709381
0.0705044
0.0754142
0.134972
0.075358
0.0715701
0.11844
0.118977
0.11166
0.104913
0.0994222
0.0779733
0.0825347
0.094641
0.0904024
0.0862712
0.122343
0.115437
0.116253
0.11843
0.116892
0.116214
1.93758
1.80986
2.49671
2.78423
3.44193
5.8632
4.10789
3.02877
5.86391
6.05944
0.0731589
0.0746845
0.0803055
0.0744934
0.0754618
0.0775517
0.114041
0.106965
0.102066
0.0968117
0.0814784
0.0818165
0.093736
0.0890156
0.0867671
0.115173
0.112629
0.113614
0.1119
0.110958
1.52375
1.47778
2.1641
2.39527
6.31194
2.98049
5.5954
5.42207
3.68323
2.58979
5.49534
5.85216
0.0749049
0.0774277
0.0775023
0.0788068
0.0819797
0.109998
0.105375
0.101391
0.097038
0.0836365
0.0848372
0.0936753
0.0902975
0.0875765
0.109164
0.107279
0.105298
6.14597
1.19381
1.20122
1.84533
1.98305
5.89635
2.58172
5.25548
5.15524
4.96546
3.23836
2.13133
5.09654
5.64062
0.0772141
0.0780759
0.080206
0.0816224
0.104231
0.10242
0.0998781
0.096754
0.0841733
0.0862861
0.0938317
0.0910668
0.0885803
6.73233
5.57206
0.934088
0.961426
1.51153
1.46825
5.43241
2.22675
5.10373
4.8024
4.70491
4.49125
2.74413
1.57436
4.65447
5.42224
7.71441
6.19448
5.00225
0.725836
0.737727
1.09832
0.599017
4.94372
1.88984
4.96099
4.68345
4.35595
4.2451
3.98884
2.11207
0.670446
4.12972
5.1913
8.42286
7.31244
5.61312
4.43892
0.549019
0.49186
0.398241
4.42949
1.5553
3.49755
4.65096
4.26083
3.91301
3.76515
3.42523
1.0466
3.41833
9.77867
7.9441
6.84057
4.99992
3.87352
0.367086
0.127308
3.85918
1.36415
2.74144
3.05165
4.32781
3.83816
3.46215
3.23638
2.71296
2.17256
11.2158
8.98535
7.4879
6.29742
4.36031
3.27757
0.0832726
3.12242
1.42689
2.37765
2.62998
3.98906
3.40473
2.97486
2.57825
1.51234
11.8427
11.1951
8.06454
7.023
5.65848
3.67907
2.5626
1.71947
1.3082
1.27816
2.05788
2.21933
3.62346
2.93465
2.37905
1.48405
12.1205
11.5247
10.9287
7.07326
6.51625
4.88725
2.88944
1.3572
1.48533
1.19871
1.14333
1.76399
1.8085
3.20551
2.35876
1.39292
8.1842
12.1262
10.9382
10.3765
6.03192
5.95468
3.93764
1.65691
1.59759
1.38048
1.0921
1.01808
1.48118
1.38864
2.66759
1.41472
6.9196
8.06595
11.8603
10.0689
9.5206
5.00148
5.17878
2.56349
1.6092
1.48253
1.273
0.984487
0.895871
1.19438
0.949061
1.76081
6.28662
6.62069
7.7245
11.3884
8.9746
8.30239
4.25381
3.46476
1.51209
1.49314
1.36503
1.15979
0.870487
0.763165
0.869485
0.468762
6.30028
6.10223
6.1984
7.221
10.6528
7.64048
6.74894
3.3629
1.33094
1.40528
1.37477
1.24212
1.03575
0.74011
0.587328
0.40385
6.84958
6.09879
5.78678
5.70356
6.61513
9.52137
6.08589
5.90001
1.42722
1.21903
1.29608
1.25105
1.10838
0.889701
0.566482
0.262906
8.07414
6.54314
5.7728
5.38202
5.15297
5.93073
7.62505
3.77079
2.64717
1.27943
1.11042
1.18128
1.11655
0.952094
0.691085
0.250274
12.0244
7.94418
6.12301
5.36241
4.9034
4.53602
5.12258
5.11901
3.54044
2.30462
1.14511
1.00098
1.05554
0.959446
0.741518
0.334362
11.7546
12.0077
7.60093
5.63305
4.88028
4.34297
3.80755
4.02958
4.95589
3.08101
1.99868
1.0201
0.885034
0.9076
0.747945
0.371155
11.0535
11.4513
11.7158
7.09816
5.08783
4.3172
3.65719
2.87753
5.13988
4.64476
2.64863
1.71435
0.897682
0.752543
0.70683
0.377039
9.81931
11.0599
10.9216
11.1493
6.48295
4.47753
3.6287
2.76501
5.23695
4.71759
4.32294
2.23231
1.4393
0.764149
0.5768
0.348476
8.4163
9.06153
10.8575
10.1769
10.3388
5.74603
3.75164
2.72862
5.56611
4.78097
4.29229
3.98434
1.8186
1.15985
0.587334
0.259322
7.7726
7.95733
8.19109
10.4136
9.25441
9.19918
4.82615
2.80324
5.85965
5.1266
4.33436
3.86739
3.61869
1.39767
0.842425
0.262802
6.75363
7.365
7.53245
7.30722
9.77201
8.26445
7.70014
3.52065
6.65219
6.26587
5.42429
4.67822
3.89333
3.43162
3.19921
0.951737
0.383042
6.13635
6.22205
6.89443
7.10663
6.42092
8.95082
7.24511
6.06928
5.08238
6.44254
5.93826
4.97201
4.22036
3.44425
2.95749
2.65535
0.456035
6.24908
5.56151
5.64286
6.36311
6.64551
5.53
7.92867
5.78792
3.40881
4.53467
4.68584
6.22499
5.56942
4.49942
3.74161
2.95742
2.37275
1.72601
5.84685
4.99023
5.02483
5.73119
6.1077
4.80413
6.4496
2.94441
2.06765
4.31032
4.02606
4.25854
6.00331
5.167
3.99698
3.21259
2.36046
1.40383
2.44269
3.56272
5.39527
4.42589
4.37838
4.96414
5.31222
3.56482
2.53728
1.63365
3.82448
3.54565
3.81495
5.77795
4.71739
3.43173
2.55237
1.35593
1.98657
3.13521
4.91568
3.86081
3.69471
4.01696
3.51935
2.18499
1.28416
3.37744
3.0909
3.34974
5.5464
4.18033
2.71263
1.43971
1.6198
2.7488
4.40959
3.26614
2.90297
2.63986
1.85614
1.0083
2.95768
2.64621
2.83217
5.301
3.44647
1.48571
1.31475
2.39043
3.84472
2.5544
1.67981
1.55413
0.786103
2.54655
2.17945
2.16826
2.1459
1.05077
2.04462
3.11442
1.35919
1.36813
0.595993
2.11088
1.60585
1.04413
0.805831
1.68128
1.73093
0.399709
1.56798
0.662559
0.539182
1.23209
0.0958848
0.646675
0.148614
0.474812
0.0862871
0.084341
0.0856278
0.0856374
0.087085
0.086857
0.0875061
0.0875384
0.0882495
0.082738
0.0838419
0.0842683
0.085468
0.0857856
0.0869331
0.0875458
0.0918811
0.0933124
0.0946474
0.0968886
0.0983354
0.0884446
0.0892436
0.0882734
0.0884322
0.088742
0.0883793
0.0896063
0.0893369
0.0903769
0.101019
0.10218
0.0814156
0.0825201
0.083142
0.0842319
0.0848572
0.0858043
0.0867986
0.0878893
0.0888482
0.0898277
0.0909298
0.0923037
0.0941186
0.0955481
0.0986404
0.100127
0.105621
0.10637
0.0902313
0.0911043
0.0921595
0.0931223
0.0944972
0.0959437
0.0983186
0.089636
0.0900937
0.0896197
0.0896328
0.0905179
0.0898749
0.0918757
0.0913559
0.0927016
0.0981476
0.0999623
0.110618
0.112293
0.10486
0.104609
0.109695
0.0804111
0.0814369
0.0823017
0.0833109
0.0842611
0.08526
0.0864626
0.0873954
0.0891236
0.0902112
0.0916791
0.0929514
0.0969008
0.0983232
0.101512
0.102627
0.107158
0.108418
0.113558
0.115703
0.122059
0.122192
0.129162
0.0910776
0.091802
0.0927627
0.0937811
0.095251
0.0908134
0.0910862
0.0911649
0.090853
0.0924218
0.0916467
0.09512
0.0940639
0.0933456
0.0956633
0.0993143
0.0995462
0.104586
0.10621
0.125795
0.113797
0.121455
0.11057
0.113469
0.0800091
0.080939
0.0820818
0.0830788
0.0843427
0.0852556
0.0867379
0.0876513
0.0892518
0.0902266
0.0924585
0.0945747
0.102688
0.0998561
0.106144
0.108634
0.113106
0.114593
0.119467
0.129184
0.13485
0.135696
0.14941
0.152038
0.145753
0.154275
0.154848
0.195999
0.0920557
0.0928142
0.093635
0.0945881
0.097469
0.096225
0.0920966
0.0921331
0.0927791
0.0923017
0.0952382
0.0942257
0.0934812
0.0996736
0.0983497
0.0959511
0.0983945
0.100291
0.248605
0.214689
0.307447
0.1047
0.105011
0.110534
0.112773
0.127381
0.129494
0.165333
0.144601
0.121899
0.127964
0.0807298
0.0813191
0.0829404
0.0835448
0.0853422
0.0858712
0.0878831
0.0886335
0.0918453
0.0910545
0.0953534
0.0967192
0.101564
0.103898
0.113429
0.111606
0.120841
0.129662
0.136645
0.137431
0.149266
0.714027
0.702063
0.493583
0.162243
0.171065
0.186333
0.192639
0.202474
0.217767
0.218361
0.491142
0.292799
6.43664
7.00301
6.85412
6.54035
7.1631
7.18505
6.95615
6.58294
0.093196
0.0935578
0.0945592
0.0954939
0.0971855
0.0961145
0.0934789
0.0932971
0.0952796
0.0944605
0.0939421
0.1019
0.100516
0.0992004
0.0980618
0.096706
0.0996349
0.105659
0.10157
0.104958
6.03557
5.06804
1.86188
1.31903
0.772497
0.174813
0.249509
0.305498
0.56465
0.112761
0.113127
0.114117
0.113675
0.125769
0.127876
0.13972
0.136104
0.164065
6.22898
6.91987
4.54362
7.14363
7.20529
7.18989
5.44523
6.07889
6.16757
7.17394
0.0869314
0.0845196
0.0886443
0.0872956
0.091041
0.0900408
0.0936648
0.0934945
0.0966138
0.0963639
0.100436
0.100342
0.108013
0.111151
0.116684
0.1157
0.121405
0.146846
0.124574
0.159697
0.211118
0.203485
0.247601
0.248757
0.243944
1.27983
1.78614
3.41984
2.48489
1.29567
0.996444
0.35675
0.394838
0.498978
0.50517
1.02142
0.596085
0.57999
3.88656
6.05856
4.96649
5.26926
6.15812
6.68964
6.92231
6.91545
4.97671
4.92458
7.12821
7.08222
5.57535
5.79478
6.38245
7.01932
6.59961
6.96445
0.0944608
0.0946745
0.0955557
0.0968525
0.0972286
0.0962144
0.0957139
0.0950039
0.0946379
0.103986
0.102515
0.101115
0.0999382
0.0988843
0.0978917
0.0975099
0.100506
0.100883
0.104796
0.1053
0.109664
0.104604
2.68299
4.52678
3.52982
5.9135
4.61549
1.67603
2.70566
1.43449
0.752879
0.113073
0.609494
0.19997
0.348232
0.255947
0.123358
0.120204
0.129102
0.124219
0.132164
0.130887
0.149109
0.143214
0.200248
6.2461
7.08736
5.94628
4.28941
4.70186
3.65262
7.32306
7.42698
7.24682
5.99589
4.52803
5.61489
0.188879
0.103191
2.11
0.646729
0.135754
0.10537
0.124264
0.105189
0.119335
0.104634
0.117831
0.112407
0.109765
0.121478
0.120464
0.143012
0.17597
0.164963
0.201337
0.283296
0.252501
0.336683
0.661799
0.377513
0.407545
0.903258
1.02982
0.552161
0.485808
0.655967
0.633675
0.798813
0.799622
1.92831
2.54657
3.68256
2.97789
2.0854
1.51561
1.16539
1.16967
1.75754
1.31102
1.42957
4.93829
4.32168
5.15448
6.16923
5.86757
6.84937
6.64549
7.10483
7.01121
7.05371
5.22037
5.7771
6.98924
7.00337
6.84498
6.81349
6.51183
0.0976856
0.0956964
0.0957571
0.0966029
0.0971998
0.0964497
0.0961672
0.0983383
0.106113
0.104606
0.103011
0.101721
0.100582
0.0994377
0.0988004
0.0978642
0.108095
0.10574
0.107976
0.110326
0.108803
0.110229
0.101443
0.101335
0.101776
0.103441
0.113995
0.10827
0.109727
0.105473
4.62887
4.09846
3.03533
0.983651
2.53486
1.74101
0.119383
0.132904
0.131706
1.09813
0.26267
0.561047
0.364543
0.143952
0.139764
0.152535
0.148567
0.175955
0.165093
0.276816
4.4157
6.61347
7.22239
6.2329
5.30781
7.45524
3.35739
3.90573
2.72638
7.66195
7.44944
6.66639
5.50191
4.00019
4.74028
4.74061
1.19315
0.340577
4.56661
3.58424
0.686545
0.334997
0.521617
0.254458
0.401536
0.216247
0.342326
0.182554
0.247529
0.446255
0.779765
0.555135
0.962909
0.620972
0.758383
1.34639
1.67211
1.83017
1.18539
1.19751
1.86103
2.09394
1.24468
1.37545
1.67311
1.58409
1.95982
1.67446
3.94901
2.76609
3.31102
3.14308
2.68361
2.53676
2.9087
2.19008
2.70127
5.38845
4.52428
6.74374
6.05932
6.36827
7.07459
6.97245
6.92151
7.00106
6.52592
6.61371
0.10997
0.108458
0.0970659
0.0982455
0.097538
0.0969996
0.0970137
0.0985761
0.0996993
0.104782
0.102922
0.102217
0.10075
0.100235
0.0991504
0.098847
0.0980958
0.106734
0.104837
0.105984
0.107102
0.105414
0.106762
0.101118
0.101727
0.103036
0.105637
0.120596
0.113721
0.114824
0.108583
1.7989
2.6522
3.5279
0.129604
0.142691
0.141377
0.164001
0.159586
0.784117
1.83917
0.360347
0.709448
0.19857
0.18264
0.273933
0.235993
0.36961
3.59593
5.12881
4.76287
6.87859
6.98515
7.36295
7.79351
7.72027
2.65542
3.60348
7.40907
6.47195
5.72706
4.0521
4.7634
4.77073
2.08685
4.79448
5.11645
5.63867
3.79048
2.3951
5.78655
6.27725
3.38036
1.73733
2.62098
1.23126
2.01872
1.02307
1.35999
1.58025
1.20687
2.18793
1.79532
1.73123
1.70397
1.82595
2.77671
2.87117
2.99932
3.31622
2.53563
2.37406
3.40274
3.59119
2.57476
2.82592
3.30477
3.11566
3.49692
4.7072
4.18903
4.54804
3.71764
4.26364
4.2316
3.99008
4.41074
6.37107
5.70623
6.97035
6.81788
6.91178
6.92605
6.35248
6.45671
0.111828
0.109318
0.107507
0.106011
0.0985781
0.0984299
0.0987394
0.0995377
0.100674
0.103867
0.102439
0.101764
0.100651
0.100239
0.0994196
0.099465
0.103702
0.104573
0.103088
0.104272
0.103446
0.104478
0.102068
0.102164
0.104036
0.109967
0.105683
0.102604
0.130518
0.121552
0.122598
0.115445
0.138643
3.15769
2.29759
0.154952
0.151601
0.1849
0.179525
0.263808
0.3129
0.249522
0.790979
2.07701
0.956403
0.498963
0.416886
0.863164
5.07835
4.23281
7.38348
6.75901
7.96391
7.84992
7.56632
7.28937
6.88394
6.53829
0.210523
0.705861
4.68021
5.55244
1.28305
3.89419
5.77811
5.47017
6.30832
6.05835
5.52902
6.20884
5.92866
5.31241
5.37362
3.55663
4.29003
3.29641
2.92023
2.89797
4.2373
3.3404
4.18603
3.51541
3.69391
4.28977
4.65844
4.60123
4.71101
4.25154
4.11763
3.76102
4.9199
5.09266
4.2596
4.44558
5.11531
5.01059
5.81484
6.07979
5.63458
5.50593
5.80973
5.48534
5.69675
6.82102
6.70118
6.68376
6.72472
6.07305
6.17639
0.0882529
0.109274
0.112428
0.111046
0.109207
0.106993
0.105569
0.104043
0.0996431
0.0998259
0.100165
0.100279
0.102636
0.102369
0.101657
0.10091
0.10042
0.100059
0.101263
0.102194
0.101461
0.102485
0.102115
0.103026
0.10225
0.106257
0.107081
0.116225
0.105185
0.106727
0.142534
0.126314
0.130058
0.117114
0.159479
0.186406
0.168425
4.47223
2.79429
0.249249
0.210171
0.490113
0.408285
1.21245
1.04651
0.884212
2.32879
3.05936
1.65865
7.34208
6.2274
8.09629
8.21253
7.9583
7.56397
7.10548
6.74723
0.147931
0.453493
4.10857
6.35627
0.844865
2.38448
6.33674
6.15556
5.94291
6.54579
6.07197
5.58294
6.94265
6.23704
6.87157
6.45788
6.04481
6.03684
5.64054
4.70224
4.75383
5.93702
5.41735
5.1686
5.39494
5.61144
5.49982
5.75675
5.68211
5.63647
5.58254
5.88753
5.13207
5.41439
5.92315
5.91098
5.63859
5.73422
6.03617
6.0762
6.2937
6.22843
6.63632
6.40254
6.3812
6.46194
6.51014
5.76746
5.92041
0.081306
0.0851142
0.0894389
0.108428
0.111028
0.110167
0.108877
0.108317
0.106996
0.105156
0.102738
0.104171
0.107606
0.108723
0.101438
0.100385
0.0997187
0.0998971
0.100681
0.0999316
0.0998272
0.100272
0.100896
0.100628
0.101575
0.101466
0.102139
0.103058
0.105539
0.108809
0.114528
0.117227
0.110791
0.139049
0.163172
0.12582
0.14251
0.177419
0.231495
0.200717
0.251251
0.389836
0.285088
6.40934
5.3518
1.11771
0.817468
2.5271
1.97216
4.38582
5.80105
3.95115
8.4124
8.36407
8.50061
8.02527
7.7059
7.19521
0.13286
0.320591
3.27307
6.21652
0.55986
1.58609
6.09932
6.913
5.33415
5.5044
6.67878
5.9188
6.84438
6.61173
5.25087
5.76548
6.50708
6.38563
6.50639
6.22902
6.43514
5.79588
5.99368
6.12452
6.12137
5.87727
5.92097
5.76604
5.79627
5.75984
5.65394
5.70019
5.57796
5.42403
5.41726
5.94674
5.93582
5.96737
5.85143
6.00721
5.95812
5.98504
5.86739
5.99546
6.23288
6.29574
6.00684
5.58534
5.75082
0.0798504
0.0815289
0.0836311
0.0882364
0.0915747
0.107549
0.107288
0.106747
0.105892
0.105941
0.101945
0.103819
0.103084
0.104861
0.105327
0.105129
0.104386
0.105593
0.103394
0.103374
0.101401
0.101474
0.103492
0.100556
0.100018
0.100394
0.100161
0.101775
0.10029
0.100535
0.100847
0.101112
0.101415
0.101964
0.102342
0.105701
0.111402
0.107717
0.115522
0.124444
0.122154
0.130395
0.158591
0.182917
0.142442
0.161849
0.211551
0.277666
0.678492
0.612927
0.483149
0.912924
1.83562
1.79401
8.61205
7.78305
4.25553
4.42509
6.74934
7.91742
6.74755
9.18953
8.70918
8.47292
8.03773
0.125454
0.245558
2.47992
5.11474
0.386982
1.08134
5.20514
7.04071
5.64771
5.15749
6.79139
6.34762
5.66379
5.30659
4.96193
4.94023
6.01059
6.12614
5.20833
5.65348
5.40166
5.83883
5.75964
5.79514
5.78933
5.42202
5.45122
5.01495
5.00216
4.89225
5.17031
4.77359
4.62998
4.06493
3.69975
4.36681
4.45222
5.39127
5.81385
5.81704
5.30363
5.4025
5.45379
5.40804
5.04287
5.47745
0.104905
0.0799016
0.0807015
0.0819058
0.0839203
0.0863174
0.0905671
0.0940912
0.0809467
0.0809733
0.0825055
0.0822591
0.0844162
0.0837399
0.0994838
0.0998618
0.0976156
0.0980873
0.0956139
0.0962185
0.0934578
0.0942583
0.086642
0.0856732
0.0889927
0.0876983
0.091249
0.0921053
0.0898988
0.104495
0.103983
0.103446
0.103806
0.102818
0.102497
0.103224
0.102315
0.102511
0.101934
0.103083
0.100439
0.100736
0.098546
0.0988951
0.102414
0.100982
0.102219
0.100842
0.101599
0.101809
0.101608
0.101806
0.102009
0.102694
0.103011
0.103095
0.102794
0.103466
0.109281
0.10513
0.118755
0.112466
0.123737
0.13763
0.132552
0.148974
0.186454
0.235257
0.167995
0.200959
0.291742
0.635155
3.16105
2.39517
3.23948
1.46835
3.15409
5.22672
6.03172
9.54317
9.42184
8.36437
9.49191
8.54991
9.65596
8.84415
0.118655
0.196224
4.60842
1.71736
2.7646
0.286193
0.752668
6.18856
6.87951
5.79486
5.20481
6.5835
6.13326
6.62729
4.77329
4.68343
4.68907
5.27874
5.18852
4.42678
4.66458
4.6801
4.42986
4.85242
4.99546
4.53557
4.47197
4.0765
4.01896
3.53991
3.60969
3.83262
2.86463
2.87773
2.57357
2.58393
3.31456
4.85867
4.7333
3.61428
4.18011
4.02314
0.105029
0.0928322
0.0963965
0.0817869
0.082704
0.0843211
0.0865982
0.0892416
0.0826014
0.0829238
0.0837866
0.0838489
0.0852593
0.0851751
0.0966906
0.0972925
0.0948326
0.0956539
0.0928284
0.0938451
0.0907282
0.0920258
0.087043
0.0866917
0.0887903
0.0901207
0.0883472
0.102436
0.101959
0.101719
0.102487
0.102299
0.100005
0.100501
0.100096
0.10115
0.0982451
0.0987094
0.0964144
0.0969364
0.102126
0.102778
0.102457
0.104146
0.103578
0.103976
0.104324
0.103831
0.104636
0.105737
0.104367
0.104614
0.104146
0.11244
0.107891
0.108356
0.126986
0.117308
0.133935
0.156671
0.151251
0.17745
0.208763
0.422667
0.204678
0.275115
0.616221
1.99294
6.18804
6.92798
6.0967
7.35624
3.97658
6.84155
8.50844
9.46598
10.4525
10.1617
10.2579
0.116166
0.146534
0.201553
2.92354
4.90778
1.11596
2.17695
0.445435
5.46921
6.40801
5.35435
4.77195
5.88373
5.50216
6.33782
6.47734
6.0587
5.81063
4.21268
4.36549
4.39353
4.28838
3.94384
4.01386
3.92853
3.81747
3.96306
3.98707
3.62802
3.60155
3.11166
3.19183
2.53075
2.64751
2.09509
2.14651
1.90803
1.82304
3.29266
1.83761
2.80838
4.94081
0.096035
0.101922
0.0893519
0.0931009
0.083899
0.0852553
0.0871937
0.084542
0.0849123
0.0854577
0.0855413
0.0866593
0.0866524
0.0947541
0.0953831
0.0931136
0.0938998
0.0913909
0.0922771
0.0897608
0.0908068
0.088204
0.089299
0.0879203
0.10093
0.100875
0.100874
0.100672
0.0982253
0.0990548
0.0987759
0.100148
0.0965681
0.0972836
0.0949501
0.095669
0.102736
0.102124
0.104913
0.10395
0.109269
0.107568
0.110355
0.109459
0.106666
0.107692
0.110617
0.108392
0.106325
0.112139
0.107601
0.107718
0.121182
0.120575
0.139368
0.137146
0.174872
0.171391
0.23277
0.197657
0.317143
0.728323
0.261435
0.399555
1.73149
4.22564
6.44537
9.53951
9.62208
9.52593
9.79175
10.7347
10.6999
10.9959
0.708991
0.106001
0.110084
0.139216
0.180694
0.33451
3.99342
1.61562
2.42631
5.6102
4.40927
4.37389
4.83353
5.62513
6.04335
4.82457
5.30258
6.14283
6.08732
5.61309
5.18767
3.78879
3.97596
3.62147
3.63966
3.52904
3.54848
3.41329
2.95372
3.22995
3.19769
2.44873
2.63802
1.98457
2.15579
1.63662
1.75711
1.49822
1.47359
0.0939075
0.0973928
0.0864652
0.0881787
0.0909763
0.0863003
0.0877656
0.0870144
0.0874336
0.0878723
0.0879422
0.093334
0.0942506
0.0916773
0.0929246
0.0903375
0.0914924
0.0890376
0.0902306
0.0890409
0.101334
0.0999626
0.100115
0.100505
0.0973035
0.0981381
0.0998361
0.098254
0.0957118
0.0966616
0.0943775
0.0951851
0.105274
0.10402
0.104051
0.107983
0.106117
0.114916
0.114248
0.113484
0.115826
0.122426
0.119649
0.12012
0.117311
0.116218
0.11235
0.110095
0.120127
0.11674
0.123323
0.146968
0.136949
0.216536
0.217128
0.170381
0.20299
0.311341
0.314183
1.00401
2.03149
0.895589
3.80697
5.77372
7.6639
10.3465
11.7315
11.5406
11.4731
1.49594
2.00866
0.100002
0.538588
1.02856
0.107943
0.112511
0.119704
0.155036
0.195364
0.317139
3.90094
3.15444
5.57886
5.13469
3.91076
4.27552
5.87286
5.97448
4.28931
4.80373
5.75765
5.58943
4.93939
3.37365
3.5562
2.95523
3.10188
3.11386
2.96441
2.52393
2.65801
2.09079
2.27474
1.75614
1.89736
1.43176
1.60796
0.096589
0.0890805
0.0922253
0.0943669
0.0946944
0.0884561
0.0900401
0.0886781
0.089539
0.0893462
0.0896052
0.0927244
0.0938908
0.0916055
0.0925775
0.0904046
0.0914577
0.0903345
0.0943906
0.100275
0.100002
0.101445
0.0992532
0.0981084
0.097025
0.101701
0.0971242
0.0962067
0.0961251
0.105108
0.103395
0.10693
0.109556
0.109696
0.114803
0.11354
0.123162
0.125325