/*--------------------------------*- C++ -*----------------------------------*\
  =========                 |
  \\      /  F ield         | OpenFOAM: The Open Source CFD Toolbox
   \\    /   O peration     | Website:  https://openfoam.org
    \\  /    A nd           | Version:  8
     \\/     M anipulation  |
\*---------------------------------------------------------------------------*/
FoamFile
{
    version     2.0;
    format      ascii;
    class       volScalarField;
    location    "20000";
    object      nut;
}
// * * * * * * * * * * * * * * * * * * * * * * * * * * * * * * * * * * * * * //

dimensions      [0 2 -1 0 0 0 0];

internalField   nonuniform List<scalar> 
4109
(
0.00066645
0.000661359
0.000658655
0.000666438
0.000669036
0.00067762
0.000672486
0.000677322
0.000674981
0.000656885
0.000666941
0.000678481
0.000668143
0.000671038
0.000676852
0.000677668
0.000666072
0.000673686
0.000679237
0.000675709
0.000660671
0.000678521
0.000673859
0.000678056
0.000673713
0.000668215
0.000656409
0.000672761
0.000677629
0.000681368
0.000677363
0.000676875
0.000668047
0.000671252
0.000677457
0.00068247
0.000673898
0.000667041
0.000667035
0.000669732
0.00066734
0.000662805
0.000673916
0.000681489
0.00067813
0.00148541
0.000825141
0.000677817
0.000677446
0.00066331
0.000673126
0.000677462
0.00067697
0.00067274
0.000675817
0.000660839
0.000660777
0.000678139
0.000676455
0.000669667
0.00067531
0.00196335
0.000684654
0.000680089
0.000679315
0.000728801
0.0012346
0.000678696
0.00067359
0.000660491
0.000671605
0.000678938
0.000689437
0.000677357
0.000679782
0.000673506
0.000670916
0.000667394
0.000648007
0.000674929
0.000679433
0.000679821
0.000675746
0.000668692
0.000728671
0.000739022
0.00152789
0.00193091
0.00194739
0.000684497
0.000685496
0.00068057
0.000680242
0.000680476
0.000705339
0.000942052
0.000676896
0.000662636
0.00069215
0.000686003
0.000682332
0.000686538
0.000692451
0.000684845
0.000673052
0.000676232
0.000674482
0.000666463
0.000657387
0.00067874
0.000653045
0.000680751
0.000680678
0.00067702
0.000670673
0.00209792
0.00082687
0.000989903
0.00126786
0.00197055
0.0020112
0.000670934
0.000687795
0.000689214
0.000682884
0.000682037
0.000681565
0.000677128
0.000938009
0.00065692
0.000664558
0.000692982
0.000689521
0.000694141
0.000692902
0.000681225
0.000689443
0.000676556
0.00067362
0.000671691
0.000659978
0.000677687
0.00068207
0.000681523
0.000682121
0.00067823
0.000671145
0.00175809
0.00102496
0.00194696
0.00131259
0.00201123
0.000803576
0.000690524
0.000688853
0.000683249
0.000682937
0.000682981
0.000680575
0.000666382
0.000818192
0.00066221
0.000694228
0.000690487
0.000696296
0.000694303
0.000695497
0.000696317
0.000680837
0.000679222
0.000677063
0.000671257
0.000655486
0.000679952
0.000674368
0.000683528
0.000683205
0.000678956
0.000673487
0.00118964
0.00227792
0.0012143
0.00194109
0.00199571
0.00075217
0.000685814
0.000686142
0.000684841
0.000682804
0.000684483
0.000669492
0.000860173
0.000668458
0.000688896
0.000689207
0.000697155
0.000692024
0.000697555
0.000700321
0.000691743
0.000685022
0.00067922
0.000676815
0.000673302
0.000662574
0.000682588
0.000676169
0.000684292
0.000684253
0.000681521
0.000673605
0.0011646
0.00214493
0.0019816
0.00117188
0.0020286
0.00074653
0.000685986
0.00068805
0.000685587
0.000671761
0.000858126
0.000650409
0.000689096
0.000691109
0.000692438
0.000692301
0.000695298
0.000700714
0.000698417
0.000702046
0.00068664
0.000682463
0.000679906
0.000674872
0.000659787
0.00068525
0.000672349
0.000685582
0.000685897
0.000682362
0.000683523
0.000676447
0.00109779
0.00216573
0.00120721
0.00196831
0.0020144
0.000729169
0.000688602
0.00068876
0.000679127
0.000857564
0.000654016
0.000692172
0.00069161
0.000694056
0.000695803
0.000695597
0.000695854
0.000701318
0.00070361
0.000696693
0.000693042
0.000682266
0.000678453
0.000666224
0.000683508
0.000688418
0.00067459
0.000687144
0.000685073
0.000676341
0.000685538
0.00218475
0.0010473
0.00198909
0.0011867
0.00204027
0.000724864
0.000782843
0.000674755
0.000681233
0.000851121
0.00065771
0.000692816
0.00068973
0.000694589
0.000698663
0.00069919
0.00069712
0.000698764
0.000704659
0.000703081
0.000707616
0.000698337
0.000692275
0.000662494
0.000680368
0.000675038
0.000684964
0.000685325
0.000692599
0.000673977
0.000690216
0.000679519
0.000687189
0.00101669
0.00217086
0.00196082
0.00114789
0.00201526
0.000713256
0.000754227
0.000791965
0.000796536
0.000776138
0.000781047
0.000789428
0.00093392
0.00065873
0.000630799
0.000676576
0.000661316
0.000688118
0.000694371
0.000701233
0.000696719
0.000699048
0.000710218
0.000699522
0.000705478
0.000710252
0.000707384
0.000699009
0.000706458
0.000701032
0.000673305
0.000677395
0.000686285
0.000688454
0.000679284
0.000694711
0.000677239
0.000691019
0.000689165
0.000985621
0.00223432
0.00196214
0.000704573
0.000781649
0.000845627
0.000776562
0.000788894
0.000787184
0.000805403
0.000707786
0.000723057
0.000731182
0.000762507
0.000766352
0.000739405
0.000774973
0.000783626
0.00147061
0.000615531
0.000601811
0.000642294
0.000694823
0.000712885
0.000697959
0.000699966
0.000702226
0.000700739
0.000709239
0.000702444
0.000709218
0.000715881
0.00071441
0.000708488
0.000719718
0.000730565
0.000729091
0.000666377
0.000682994
0.000689838
0.00068867
0.000682667
0.000690363
0.000696156
0.000674271
0.000694435
0.000954891
0.00236996
0.000812917
0.000817778
0.000783554
0.000782797
0.000801207
0.000722358
0.000710015
0.000739573
0.00072885
0.00073474
0.000743961
0.000750938
0.00078008
0.000773021
0.000771031
0.00251411
0.00108279
0.000550201
0.00061713
0.000685171
0.000713753
0.000713381
0.000700475
0.00070414
0.00070036
0.000702779
0.00070872
0.000703469
0.000718359
0.000718383
0.000723985
0.000723503
0.000728303
0.000726314
0.000678459
0.00068522
0.000693821
0.000693995
0.000691274
0.00068244
0.00069246
0.000696407
0.000699833
0.000700016
0.000676498
0.000982086
0.000792404
0.000845205
0.000813598
0.000783767
0.000789003
0.000800714
0.000729181
0.000719264
0.000725845
0.00073684
0.000740067
0.000740451
0.000729982
0.000732529
0.000734725
0.000755152
0.000775065
0.000770398
0.000767089
0.00240643
0.00188742
0.000629231
0.000630128
0.000682742
0.000713236
0.00071153
0.000699833
0.000703761
0.000705579
0.000704536
0.000706444
0.000716621
0.000717352
0.00072241
0.000722517
0.000722847
0.000726497
0.000672548
0.000695166
0.000691413
0.0006966
0.000697503
0.000685975
0.000685735
0.000693736
0.000697295
0.000689702
0.00150617
0.00177946
0.000703751
0.000651921
0.000816201
0.0008158
0.000834058
0.000843411
0.000818474
0.000779392
0.000787528
0.000804595
0.000732342
0.000729804
0.000734656
0.00074018
0.000749291
0.000738791
0.000754095
0.000735516
0.000741201
0.000764273
0.000759209
0.000770821
0.000774489
0.0027872
0.0021791
0.0023706
0.000591837
0.000604181
0.000676087
0.000707724
0.000710786
0.000703362
0.000708562
0.00070566
0.000706809
0.000712341
0.000715506
0.000717361
0.000720665
0.000723511
0.000728441
0.000729593
0.000686519
0.000689663
0.000704268
0.000697061
0.000696095
0.00069662
0.000699746
0.000705148
0.000689769
0.000692917
0.000650545
0.00060913
0.000833277
0.000811154
0.000822821
0.000772177
0.000753121
0.000853262
0.000810039
0.000783689
0.000786126
0.000799478
0.000735317
0.000733734
0.000732547
0.000762816
0.000744741
0.000749484
0.000739535
0.000741817
0.000760119
0.000755396
0.000767055
0.000773012
0.000721769
0.00284984
0.0024876
0.00250347
0.000636736
0.00060055
0.000674859
0.000708724
0.000711171
0.000707906
0.000700721
0.000709741
0.000713253
0.000715882
0.000718168
0.000720999
0.000724378
0.000726662
0.000730682
0.000732653
0.000677461
0.000699524
0.000701348
0.00070218
0.000701214
0.000703284
0.000702607
0.000701552
0.000690969
0.000698248
0.000698523
0.000682175
0.000833755
0.000762114
0.000775929
0.000825512
0.000768338
0.000858778
0.000806156
0.000785537
0.000791953
0.000800142
0.000808147
0.000738785
0.000736164
0.000736588
0.000732746
0.000742885
0.000752132
0.000748784
0.000759373
0.000764204
0.00077204
0.000772974
0.000699785
0.00290574
0.00258007
0.00264859
0.000611338
0.000589838
0.000668162
0.000714169
0.000709995
0.000712504
0.000707572
0.000714458
0.000718745
0.000723482
0.000719201
0.000724661
0.00072971
0.00072924
0.000734193
0.000737181
0.000690588
0.0006943
0.000709379
0.000707814
0.000704254
0.000705806
0.000709926
0.000693736
0.000695716
0.000699228
0.000654976
0.00082534
0.000807001
0.000754352
0.000745641
0.000768303
0.000808853
0.000760515
0.000818821
0.00084857
0.000783231
0.000794061
0.00079613
0.000809212
0.000741998
0.000737882
0.0007391
0.000738971
0.000738732
0.00074731
0.000747499
0.000745283
0.000756144
0.000765072
0.000775426
0.00077977
0.000797101
0.00293739
0.00277192
0.00267254
0.000641073
0.000582074
0.000682458
0.000715728
0.000712702
0.000705201
0.000715773
0.000719129
0.000722531
0.000720531
0.000726679
0.000731713
0.000734373
0.000735652
0.000738371
0.000685476
0.000706242
0.000708059
0.000694949
0.000708173
0.000706523
0.000708097
0.000704474
0.000699432
0.000700343
0.000649975
0.000845329
0.000821365
0.000823159
0.000792267
0.000736472
0.000737744
0.000751785
0.000773107
0.000801711
0.000773511
0.000735648
0.000829516
0.000837311
0.000849638
0.000782745
0.000796472
0.000798009
0.000798372
0.000743636
0.000740385
0.000737116
0.000738384
0.000747728
0.000753438
0.000746811
0.000783374
0.000761238
0.000761566
0.000773242
0.000721144
0.00298155
0.00287785
0.00282611
0.000682767
0.000615628
0.000595017
0.000721159
0.000712213
0.000722639
0.000718704
0.000725861
0.000726007
0.00072309
0.000732462
0.000734357
0.000735736
0.000700274
0.000704206
0.00071307
0.000697669
0.000700478
0.000712304
0.000707509
0.000709267
0.000715088
0.000700183
0.000645288
0.000694303
0.000705103
0.00082477
0.000810524
0.000811036
0.00078288
0.000733993
0.00075163
0.000771076
0.000765716
0.000792585
0.000723135
0.00072049
0.000719677
0.000711725
0.000703351
0.000833502
0.000814181
0.000830033
0.000815876
0.000786427
0.000785195
0.000787096
0.000784132
0.000745601
0.000741333
0.000743365
0.000755038
0.00075122
0.000749793
0.00074309
0.000772467
0.000772577
0.00076588
0.000769388
0.000862323
0.00308065
0.0030184
0.00266218
0.000601092
0.000591198
0.000716498
0.000668323
0.000733345
0.000721366
0.000731004
0.000734061
0.000737603
0.000699794
0.000716519
0.000699382
0.000702578
0.000708991
0.000713349
0.000710727
0.000712195
0.000647453
0.00070035
0.000704605
0.000705744
0.000704582
0.000810358
0.000803001
0.000801587
0.000773699
0.000731446
0.000758601
0.000788226
0.000758369
0.000739198
0.000722787
0.000722326
0.000714225
0.000711871
0.000701136
0.000712633
0.000819152
0.000851431
0.000813152
0.000820597
0.000772633
0.000775945
0.000779165
0.000764174
0.000744145
0.000743613
0.00075278
0.000747537
0.000753148
0.000748821
0.000747915
0.000773077
0.000774199
0.000764009
0.000600795
0.00301798
0.00303587
0.00271982
0.000582492
0.000578803
0.000739513
0.00103444
0.000729033
0.000734107
0.000737335
0.000726354
0.000701944
0.000705367
0.000719139
0.000713343
0.000717109
0.000710645
0.000668332
0.000709542
0.000715242
0.000722546
0.000798206
0.000800707
0.000795473
0.000791689
0.000765053
0.00076085
0.000779182
0.000751578
0.000743675
0.000753169
0.000736905
0.000726932
0.000734466
0.000729807
0.00072856
0.000729323
0.000780501
0.00080262
0.000785539
0.000810352
0.000764549
0.00076335
0.000772525
0.000767059
0.000786337
0.0007447
0.000759009
0.000754338
0.000753462
0.000751401
0.000747543
0.000761087
0.000763733
0.000762832
0.000652162
0.00316621
0.00311526
0.00308879
0.00052165
0.000730971
0.000624349
0.000737273
0.000739593
0.000704122
0.0007068
0.000713763
0.000716704
0.000718305
0.000715132
0.000681482
0.000709569
0.000731107
0.000706684
0.000796965
0.000794569
0.000788689
0.000778046
0.000756886
0.000774881
0.000746095
0.000767532
0.000764999
0.00075651
0.000736836
0.000740971
0.000751557
0.000743503
0.000747355
0.000811957
0.000786016
0.000803334
0.000757013
0.000755443
0.000762665
0.000778092
0.000778295
0.000754647
0.000751563
0.000747879
0.000756304
0.00075396
0.000752845
0.000541621
0.00315404
0.00451727
0.000983023
0.000747195
0.000624432
0.000742934
0.00071047
0.000723583
0.000717952
0.000724032
0.000714953
0.00068766
0.000709299
0.000711613
0.000785508
0.000782357
0.000777861
0.000770986
0.000751427
0.000740671
0.000736379
0.000731843
0.000728246
0.000711949
0.000714869
0.000724374
0.000717777
0.000721091
0.000778716
0.000794243
0.000788784
0.00075298
0.000759067
0.000774432
0.000752273
0.000774514
0.000752665
0.000748299
0.000751739
0.000750803
0.000752073
0.000756582
0.0054311
0.00515394
0.00141631
0.000765333
0.000573318
0.000718993
0.000721464
0.000716386
0.00072021
0.000692836
0.000715807
0.000728339
0.00078169
0.000784
0.000769992
0.000762461
0.000745371
0.000741587
0.000736439
0.000733802
0.000716941
0.000721389
0.000729071
0.000722717
0.0007273
0.000768415
0.000776976
0.000780054
0.000761135
0.000763823
0.000753084
0.000769159
0.000747995
0.000747102
0.00074655
0.000749367
0.00112683
0.000979549
0.00628647
0.00682839
0.00239412
0.00122805
0.000722932
0.00072001
0.00072759
0.000725503
0.000632185
0.000724663
0.0007265
0.000766125
0.000767332
0.000764502
0.000760206
0.000752361
0.000751606
0.000743994
0.000733394
0.000730727
0.000744563
0.000738681
0.000737047
0.000768885
0.000764092
0.000769744
0.000759114
0.000750433
0.00075362
0.000760967
0.000871415
0.000966681
0.00155593
0.0083346
0.00824118
0.00135778
0.00103472
0.00190871
0.00072432
0.000722462
0.000726673
0.000734775
0.000564561
0.000728245
0.000724397
0.000769563
0.000767398
0.000759356
0.000754433
0.000749872
0.000746371
0.000731887
0.00073398
0.000742773
0.000739921
0.00073696
0.000766272
0.000765846
0.000757014
0.000754798
0.000754961
0.000758226
0.00057586
0.000754585
0.000793186
0.00245642
0.00119625
0.000836342
0.00188695
0.00179722
0.000728773
0.000725069
0.000749315
0.00053669
0.000730772
0.000726194
0.000755612
0.000757067
0.000754632
0.000749544
0.000747144
0.000729115
0.000736722
0.000742528
0.000741542
0.000736524
0.000765151
0.000762563
0.000749428
0.000763755
0.000750749
0.000752233
0.000473392
0.000481688
0.000625465
0.000612679
0.000561957
0.00184242
0.000996386
0.00063873
0.0016192
0.00166803
0.00072945
0.00073694
0.00076743
0.000732455
0.00073186
0.000731434
0.000756101
0.000749955
0.000748684
0.000743728
0.000737028
0.000732883
0.000743406
0.000739525
0.000737736
0.000760134
0.000748733
0.000759779
0.000747326
0.000747855
0.000374496
0.000387155
0.000487793
0.000432034
0.00163657
0.000406899
0.00191215
0.00153345
0.000776415
0.000447344
0.00133287
0.00152393
0.000725576
0.000745406
0.000731101
0.00073357
0.00073527
0.000750786
0.000749784
0.00074919
0.000745048
0.000737959
0.000737588
0.000743937
0.000740863
0.000739958
0.000755115
0.000745845
0.000742826
0.00138427
0.000287919
0.000294415
0.000346603
0.000258391
0.00141412
0.000280571
0.00197256
0.00159875
0.0012211
0.000550727
0.000267539
0.00103025
0.00136443
0.000739035
0.000729001
0.000735011
0.000731133
0.000740006
0.000742346
0.000745428
0.00074355
0.000736326
0.000737032
0.000743289
0.000740251
0.000740378
0.00139573
0.00115197
0.000214227
0.000204351
0.000207659
0.000103098
0.0011665
0.000183929
0.00202834
0.00164681
0.00128528
0.000922184
0.000332099
0.000108732
0.000728003
0.00118286
0.00163206
0.00113299
0.000938192
0.000150881
0.000119926
8.14016e-05
7.2493e-06
0.00090856
0.000109699
0.00223951
0.00169695
0.00132343
0.000980196
0.000643986
0.000138624
8.72174e-06
0.000443188
0.000977901
0.00188077
0.00130918
0.000914121
0.000734033
9.27046e-05
4.46598e-05
4.63595e-06
0.000653251
5.764e-05
0.00125552
0.00194705
0.00136938
0.0010091
0.000691581
0.000393018
1.45476e-05
0.000197848
0.00249219
0.00145363
0.0010281
0.000721003
0.000534418
3.76978e-05
1.52107e-06
0.000408122
3.12218e-05
0.00113318
0.000963831
0.00160765
0.00105068
0.000712223
0.000426919
0.000178164
3.37982e-05
0.00404941
0.00185552
0.00110056
0.000790074
0.00053763
0.000341794
1.08883e-06
0.000186943
0.00141727
0.000947378
0.000716762
0.00124653
0.000746575
0.000440604
0.000196629
2.72868e-05
0.00412059
0.00340669
0.001294
0.000813073
0.000584931
0.000356955
0.000162505
2.63088e-05
0.00183977
0.00121069
0.000772501
0.000507404
0.000886784
0.000465251
0.000204843
3.21026e-05
0.00546746
0.00333594
0.00264551
0.000831192
0.000579141
0.000398125
0.000181856
2.42977e-05
0.00217777
0.00146715
0.0010006
0.000604821
0.00033151
0.000550677
0.000218702
3.50778e-05
0.00451365
0.00469114
0.00255926
0.00182852
0.000482816
0.000396946
0.000221605
3.48173e-05
0.00236272
0.00172918
0.0011209
0.000785307
0.000441646
0.000188034
0.000260361
3.95326e-05
0.00400849
0.00376501
0.00382575
0.00183558
0.00107072
0.000252616
0.00024826
6.20155e-05
0.00238555
0.00187165
0.00131701
0.000808109
0.000560781
0.000285427
7.84911e-05
5.33471e-05
0.00382037
0.00337743
0.00302157
0.00292989
0.00121963
0.000476675
0.000133457
9.56432e-05
0.00222804
0.00189042
0.00142248
0.000947986
0.000533793
0.000326957
0.000130719
1.52259e-05
0.00377118
0.00320549
0.00271182
0.00229286
0.00205137
0.00069995
0.000144712
9.40131e-05
0.0018688
0.00177234
0.00143751
0.00102199
0.000626263
0.000301681
0.000124392
1.38429e-05
0.00392777
0.00316345
0.0025708
0.00205837
0.00162416
0.00122309
0.000303468
4.0058e-05
0.00142728
0.00149031
0.00135219
0.00103349
0.000674084
0.000354744
0.000117236
9.38772e-06
0.00443627
0.00327225
0.00253548
0.00195275
0.00144416
0.00104259
0.000417371
9.06111e-05
0.00109242
0.00121607
0.00113909
0.000975078
0.000682256
0.000381305
0.00013964
9.39389e-06
0.00518593
0.00375432
0.00260491
0.00192464
0.00137307
0.000891917
0.000556553
3.59396e-05
0.00125122
0.000913524
0.00100253
0.000821996
0.000645288
0.00038638
0.00015052
1.31721e-05
0.00427719
0.00434084
0.00309271
0.00196137
0.00135194
0.000853236
0.000434097
0.000182467
0.00220901
0.000961775
0.000746221
0.000784767
0.000543526
0.000366312
0.00015286
1.51727e-05
0.00417765
0.00355076
0.00333834
0.00245311
0.00136488
0.000838361
0.000419392
0.000123266
0.0020249
0.00191183
0.000713012
0.00058521
0.000558085
0.000307656
0.000144947
1.56557e-05
0.00274431
0.00365325
0.00279737
0.00226115
0.00185562
0.00083847
0.000410165
0.000120339
0.00194538
0.00168966
0.00157269
0.000503545
0.000427462
0.000324388
0.000120234
1.42481e-05
0.00195295
0.00215521
0.00306805
0.00205997
0.00129446
0.00126513
0.000406592
0.000115648
0.00187624
0.00161796
0.00135866
0.00121492
0.000328595
0.000275844
0.000123401
1.00564e-05
0.00168384
0.00153595
0.00163187
0.00243953
0.00139089
0.000593928
0.000605489
0.000112949
0.00181158
0.00156266
0.00129533
0.00103898
0.000861635
0.000186269
0.000125358
9.38798e-06
0.00141404
0.00135453
0.00119002
0.00118071
0.00181533
0.000851399
0.00020771
0.000129772
0.00191329
0.00186851
0.00150152
0.00125161
0.000984475
0.000736058
0.000533216
7.7092e-05
1.26002e-05
0.00139085
0.00115205
0.00106745
0.000904779
0.000810471
0.00122631
0.000467904
5.04845e-05
0.00137001
0.00179336
0.00159697
0.00119075
0.000951521
0.000692423
0.00045703
0.000249953
1.39557e-05
0.00161562
0.0011568
0.000931494
0.000825059
0.000659
0.000509083
0.000703146
0.000229326
0.000565646
0.00120784
0.00119357
0.00165774
0.0013104
0.00089621
0.000669295
0.00042603
0.000213204
4.94565e-05
0.00140813
0.000941699
0.000734331
0.000612825
0.000453089
0.000283671
0.000262775
0.000407956
0.000501495
0.00116318
0.0010165
0.000985541
0.00150879
0.00100957
0.000624281
0.000411393
0.000196409
3.72619e-05
0.000630545
0.000940895
0.00116933
0.000736689
0.000545853
0.000417527
0.000276222
0.000121623
0.000279814
0.000399685
0.000994817
0.000819421
0.000763002
0.00134488
0.00071066
0.000380255
0.00018809
3.21274e-05
0.000523495
0.00081588
0.000914677
0.000536534
0.000361876
0.000232614
9.74534e-05
0.000183309
0.00030885
0.000814214
0.000623478
0.000537604
0.0011607
0.00043038
0.000171699
2.9358e-05
0.000418992
0.000677297
0.000659928
0.00034326
0.000184331
6.58323e-05
0.000109696
0.00023112
0.000627604
0.000434774
0.000321852
0.000953851
0.000189814
2.53548e-05
0.000317721
0.000528766
0.000413499
0.000163472
3.61147e-05
5.94199e-05
0.00016394
0.0004417
0.000258532
0.000132435
3.08785e-05
0.000220527
0.000376416
0.000190301
2.4708e-05
3.22354e-05
0.000101545
0.000263593
0.000103694
1.30158e-05
0.000130274
0.000226761
2.73925e-05
4.18684e-05
0.000105296
7.69146e-06
4.96182e-05
9.05203e-05
1.35482e-06
7.52772e-06
1.96999e-06
5.85646e-06
0.000739586
0.000739078
0.000740663
0.000740914
0.00074181
0.000741025
0.000741163
0.000742196
0.000740031
0.000738882
0.000740164
0.0007406
0.000741431
0.000741377
0.000742057
0.000744862
0.000758751
0.00076394
0.000768516
0.000777954
0.000782061
0.000744001
0.000747464
0.000741864
0.000743748
0.000742501
0.000740712
0.000742165
0.000743587
0.000741022
0.000794334
0.000798649
0.000740012
0.00074008
0.000740978
0.000741194
0.000742317
0.000742136
0.000745561
0.000748122
0.000751271
0.000753316
0.000756758
0.000764449
0.000771365
0.000776121
0.000789634
0.000794443
0.000819221
0.000821162
0.000750109
0.000753172
0.00075579
0.000759551
0.00076408
0.000771485
0.000780665
0.00074374
0.000747905
0.000741639
0.000742642
0.000742646
0.00074089
0.000743438
0.000744612
0.00074238
0.000778199
0.000786169
0.000840183
0.000849302
0.000808794
0.000808776
0.000833402
0.000739872
0.000740621
0.000741234
0.00074245
0.000743899
0.000745464
0.000749453
0.000751007
0.000757934
0.000759897
0.000764721
0.000771222
0.000785273
0.000791994
0.000805741
0.000811512
0.000830681
0.000834325
0.000859921
0.000869192
0.000906171
0.000899533
0.000922844
0.00074704
0.000751967
0.000753488
0.000758209
0.000763791
0.00074376
0.00074685
0.000741636
0.000741949
0.000743591
0.000741543
0.000744497
0.000744467
0.000744741
0.000763712
0.000780098
0.000781011
0.000803544
0.000811547
0.000905977
0.000853316
0.000892619
0.000835719
0.000850497
0.000742847
0.000743122
0.000745365
0.000746128
0.000750091
0.000750554
0.000757315
0.000756138
0.000766087
0.000762438
0.000776047
0.000779364
0.000816281
0.000812493
0.000826709
0.000841171
0.000855974
0.000865915
0.000885686
0.000896542
0.000950189
0.00095181
0.000999331
0.00101843
0.000982341
0.00102471
0.00103119
0.00122926
0.000746522
0.000751765
0.000753088
0.000756969
0.00074594
0.000745379
0.000743833
0.000746528
0.000742157
0.00074197
0.000744432
0.000743751
0.000741999
0.000746275
0.000745149
0.00076091
0.000772228
0.000780749
0.00152603
0.00135098
0.00149838
0.000800684
0.000803338
0.0008307
0.000844672
0.000906858
0.000919652
0.00106633
0.000971727
0.000861472
0.000910227
0.000750661
0.000748257
0.000754477
0.000750919
0.00075949
0.000754407
0.000764669
0.0007611
0.000765756
0.000770469
0.000781318
0.000783413
0.000793526
0.000818242
0.000848833
0.000823805
0.000850463
0.000970601
0.000970014
0.000964024
0.00103074
0.0020311
0.00209399
0.00175561
0.00117936
0.00117986
0.00129798
0.00124807
0.00125008
0.00137627
0.00138823
0.00186917
0.00156497
0.00355208
0.00332294
0.00339955
0.00210658
0.00299633
0.0028057
0.00246298
0.00212324
0.00074658
0.000750845
0.000750457
0.000755445
0.000744147
0.000743567
0.000743951
0.000745656
0.000742593
0.000742566
0.000742171
0.000746427
0.00074544
0.000744281
0.000743668
0.000760333
0.000774114
0.000803194
0.000781933
0.000798255
0.00366304
0.00367468
0.00284446
0.00272594
0.00214705
0.00111864
0.00135755
0.0015466
0.00192701
0.000837437
0.000839302
0.000848177
0.000847303
0.000891847
0.00090322
0.000991116
0.000976814
0.0010591
0.00363294
0.00342494
0.00126147
0.00328213
0.00288469
0.00263654
0.0014838
0.0017905
0.00189216
0.00263095
0.000779761
0.000767109
0.000783429
0.000769739
0.000786046
0.000775176
0.000789901
0.000790234
0.000798048
0.000795486
0.000810554
0.000809942
0.000848199
0.000876456
0.000929171
0.000901934
0.00113486
0.0013328
0.00109991
0.00173889
0.00142759
0.00132809
0.00162993
0.00146115
0.00143798
0.00252505
0.00304885
0.00350273
0.00304469
0.00268138
0.00228369
0.0018052
0.00167113
0.00184494
0.00200649
0.00260038
0.00190754
0.0020428
0.00348483
0.00354998
0.00361248
0.00369926
0.00356994
0.0034034
0.00329237
0.00330256
0.00138574
0.00136689
0.00284724
0.00297142
0.00153367
0.00160428
0.00191155
0.00254606
0.00207282
0.00240938
0.000746575
0.000749736
0.000749115
0.000758546
0.00074321
0.000742992
0.000742975
0.000743889
0.000745189
0.000746443
0.000745198
0.000744522
0.000743516
0.000743389
0.000743107
0.000758609
0.000774324
0.000775733
0.000795148
0.000799471
0.00082585
0.000794071
0.00349738
0.00374786
0.00338243
0.00371029
0.00365084
0.00274077
0.00332352
0.00262423
0.00215583
0.000836602
0.00191764
0.00118103
0.00173567
0.00135049
0.000884618
0.000877763
0.000898728
0.000888686
0.000921986
0.000910733
0.00103333
0.001026
0.00117851
0.00369713
0.00339317
0.00375764
0.00113346
0.00120529
0.000952179
0.00323892
0.00280149
0.00265959
0.00180233
0.00114184
0.00157861
0.000621037
0.00082591
0.00386423
0.00129136
0.000684316
0.000841649
0.000776676
0.000875119
0.00086354
0.000902716
0.000942815
0.00087906
0.000868587
0.000945031
0.00095218
0.00114276
0.00121571
0.00169199
0.00132951
0.00174638
0.0013477
0.00131176
0.0017689
0.00148377
0.00160933
0.00186905
0.00223726
0.00184441
0.00156226
0.00203089
0.00180997
0.00215264
0.00203294
0.00274145
0.00314663
0.00354085
0.0033525
0.00294849
0.00246936
0.00247838
0.00227119
0.00280552
0.00231864
0.0025197
0.00360699
0.0034986
0.00368499
0.00355565
0.00362694
0.00333147
0.00339049
0.00287799
0.00312526
0.00303457
0.00146093
0.00162573
0.00247865
0.00263898
0.0022713
0.00215554
0.00196165
0.000757571
0.00074643
0.000748862
0.00074862
0.000743111
0.000743738
0.000744837
0.000759312
0.000745965
0.000744883
0.000744501
0.000743737
0.000743853
0.000743354
0.000743831
0.000743902
0.000746842
0.000745109
0.000744487
0.000748488
0.000748047
0.000750373
0.000772914
0.000774034
0.000776362
0.000785651
0.000840111
0.00081134
0.000810189
0.000797394
0.00381272
0.00380592
0.00353999
0.00244862
0.00335217
0.00283999
0.000869021
0.00090518
0.000930487
0.00241572
0.00142093
0.00225826
0.00154313
0.000943771
0.000926362
0.0010056
0.000987799
0.00115867
0.00116729
0.0013423
0.00376696
0.00378189
0.00357423
0.00387877
0.00392588
0.00339613
0.000839729
0.000904314
0.000674241
0.00294098
0.00271328
0.00207963
0.00150905
0.000864571
0.00909884
0.00821324
0.00217169
0.000903459
0.00742703
0.00528243
0.00139153
0.000907429
0.00114872
0.0009095
0.00107653
0.000992565
0.00112898
0.00127415
0.00124941
0.00177967
0.00180698
0.00150871
0.00223574
0.00173237
0.00194823
0.0025071
0.00247228
0.00270198
0.00222172
0.00239244
0.00258354
0.00287084
0.0022288
0.00242759
0.0026476
0.00234696
0.00273323
0.00243577
0.00348769
0.00319297
0.00339251
0.00330544
0.00307375
0.00305368
0.00318689
0.00305969
0.00297709
0.00365256
0.00349409
0.00341738
0.00352624
0.00349058
0.00302801
0.00328103
0.00257298
0.00277323
0.00215365
0.00228746
0.000756056
0.000753082
0.000749748
0.000756805
0.000744117
0.00074602
0.000747539
0.000754922
0.000761597
0.000745235
0.00074422
0.000744301
0.000743609
0.000744017
0.000743647
0.00074461
0.000744776
0.000748055
0.00074203
0.000747126
0.000748466
0.000751015
0.000752571
0.000771006
0.000774776
0.000785493
0.000794001
0.000863059
0.000845516
0.000842334
0.000810158
0.00317588
0.00330845
0.00384327
0.000924734
0.000944359
0.000944319
0.00103234
0.000989814
0.00233754
0.00297708
0.00165276
0.00209678
0.0013776
0.00128657
0.00168926
0.00168186
0.00149955
0.00370223
0.00391674
0.00394109
0.00374351
0.00374741
0.0035183
0.00303329
0.00276564
0.000615832
0.00070458
0.00239452
0.00188419
0.00145982
0.00078807
0.00915391
0.0103082
0.00382888
0.0083047
0.0101741
0.00984324
0.00550994
0.00340456
0.00942713
0.00895593
0.00456696
0.00252696
0.00352418
0.00204273
0.00293855
0.00185372
0.00252899
0.00252208
0.00203684
0.00300723
0.00261369
0.00261812
0.00252063
0.00265124
0.0031553
0.00306951
0.00311603
0.00334495
0.00306561
0.00279511
0.00324009
0.0034204
0.00288899
0.0031717
0.00338476
0.00308276
0.0033852
0.00361048
0.00345798
0.0035988
0.00346802
0.00357029
0.0034443
0.00345049
0.0034754
0.00355054
0.00354197
0.00315444
0.00337488
0.00269562
0.00284735
0.00216572
0.00232794
0.000759238
0.000756839
0.000756165
0.000753959
0.000749569
0.000749959
0.000753625
0.000759588
0.00076518
0.000746978
0.000741817
0.000746834
0.00074228
0.000748291
0.000744485
0.000751181
0.000746277
0.000747607
0.000749203
0.000750654
0.000752759
0.000754039
0.000775853
0.00077683
0.000786616
0.00081811
0.000801558
0.000780834
0.0009122
0.000872422
0.000876615
0.000846324
0.000953364
0.00382975
0.00337803
0.000978734
0.00093129
0.00121134
0.00111374
0.00182052
0.00214911
0.00221005
0.00210843
0.00305077
0.00257899
0.00228951
0.002482
0.00234423
0.0039482
0.00414262
0.00377796
0.00396608
0.00323921
0.0029367
0.00237631
0.00219274
0.00189121
0.00179663
0.000608911
0.00134985
0.00767514
0.0098783
0.00229747
0.00576117
0.00967003
0.0106804
0.00857524
0.00738798
0.01071
0.0102589
0.00694958
0.00582217
0.00571933
0.00380096
0.00439602
0.00351602
0.00316393
0.00331353
0.00416164
0.00345201
0.00393306
0.00334526
0.00360667
0.00363583
0.00388323
0.00378923
0.00375869
0.00362728
0.00356754
0.00335303
0.00366463
0.00381421
0.00345275
0.00361687
0.0037266
0.00359428
0.0037066
0.00358706
0.00354856
0.00355163
0.00364201
0.00363181
0.0036192
0.00326284
0.00342244
0.00276566
0.00293804
0.00222337
0.0023994
0.000787435
0.000666288
0.000759282
0.000760242
0.000759202
0.00075762
0.000756803
0.000754809
0.00075664
0.000757927
0.000763546
0.000763793
0.000780343
0.000747351
0.000746568
0.000748215
0.000748289
0.000751828
0.000749116
0.00074998
0.000751788
0.000753125
0.000753989
0.000755737
0.000775691
0.000799492
0.000803348
0.000850058
0.000792896
0.000799995
0.000951103
0.0008946
0.000905448
0.000849653
0.00101075
0.00115316
0.000904804
0.00389737
0.00373729
0.00188372
0.00167282
0.00240216
0.00352214
0.00316773
0.00285667
0.00306591
0.00341716
0.00363422
0.00305362
0.00384609
0.00446564
0.00305263
0.00354152
0.00254822
0.00225128
0.00181508
0.00166866
0.000597129
0.000907978
0.00597474
0.00920825
0.001563
0.00343635
0.00873003