/*--------------------------------*- C++ -*----------------------------------*\
  =========                 |
  \\      /  F ield         | OpenFOAM: The Open Source CFD Toolbox
   \\    /   O peration     | Website:  https://openfoam.org
    \\  /    A nd           | Version:  8
     \\/     M anipulation  |
\*---------------------------------------------------------------------------*/
FoamFile
{
    version     2.0;
    format      ascii;
    class       volScalarField;
    location    "20000";
    object      p;
}
// * * * * * * * * * * * * * * * * * * * * * * * * * * * * * * * * * * * * * //

dimensions      [0 2 -2 0 0 0 0];

internalField   nonuniform List<scalar> 
4109
(
-0.00552573
-0.0177858
-0.00879492
-0.028762
-0.0299028
-0.0185355
-0.0287143
-0.0146654
-0.0392324
-0.039703
-0.0390237
-0.0429672
-0.00912939
-0.0228963
-0.0317834
-0.0463746
-0.0507381
-0.0467472
-0.0451164
-0.0419973
-0.00271891
-0.032453
-0.0327668
-0.0538001
-0.0546443
-0.0622792
-0.00304246
-0.00826502
-0.00559604
-0.0520835
-0.0456149
-0.0470693
-0.0299944
-0.0869026
-0.0618485
-0.0572759
-0.0622804
-0.0762981
-0.0165432
-0.0050465
-0.000188503
-0.0132551
0.000367219
-0.0561604
-0.051866
0.0902542
-0.0558641
-0.047142
-0.0550939
-0.076456
-0.0683443
-0.0659193
-0.0717178
-0.0884922
-0.023982
-0.0109735
-0.0052009
0.0150033
-0.00959526
-0.0210369
-0.0678269
0.0650758
-0.0617067
-0.0562626
-0.0523749
-0.033735
-0.0585407
-0.0519958
-0.0577836
-0.0537268
-0.10542
-0.0804854
-0.125728
-0.125612
-0.127192
-0.0299785
-0.0327772
-0.0231671
-0.012339
-0.0206182
-0.0118098
-0.0150877
-0.0160245
-0.0261977
0.0156304
-0.206771
0.123729
-0.236298
-0.00807803
-0.0812775
-0.0713074
-0.0615842
-0.0557833
-0.0534122
-0.0541319
0.0316155
-0.0530968
-0.0620704
-0.125482
-0.108885
-0.0979363
-0.139536
-0.137422
-0.145653
-0.151155
-0.0344594
-0.0374508
-0.0399356
-0.0230766
-0.00478471
0.0639263
-0.0153879
-0.015641
-0.0236845
-0.030247
-0.578981
0.112107
0.0118602
-0.00553624
-0.309747
-0.120373
0.261519
-0.0883543
-0.0778316
-0.0696243
-0.0563272
-0.0551194
-0.0465144
-0.0744615
-0.0633431
-0.0570128
-0.119953
-0.111702
-0.148663
-0.133542
-0.178194
-0.166581
-0.04163
-0.0475992
-0.0504549
-0.0340468
0.00851562
0.0595566
-0.0129793
-0.0243345
-0.0271901
-0.0345698
0.0879486
0.0819872
-0.215382
-0.100533
-0.137553
0.0954151
-0.0863031
-0.0842274
-0.075774
-0.0601877
-0.0486898
-0.0438089
-0.0396936
-0.0061135
-0.0287008
-0.10904
-0.100061
-0.148138
-0.123461
-0.166357
-0.181524
-0.214812
-0.0520203
-0.0581421
-0.0627875
-0.050945
0.00794822
0.0295356
-0.0199091
-0.023778
-0.0259438
-0.042822
0.0191571
-0.158089
0.0161525
-0.0697588
-0.083872
-0.0218767
-0.0804082
-0.0853492
-0.0724164
-0.0459561
-0.0461263
-0.0282031
-0.013925
-0.0107795
-0.0931216
-0.10053
-0.138648
-0.112033
-0.157503
-0.185373
-0.216402
-0.256871
-0.0663471
-0.0725255
-0.0757043
-0.0670668
-0.015763
0.00394681
-0.0101233
-0.0119758
-0.0242132
-0.0568314
-0.0928749
-0.103697
-0.0847563
-0.015503
-0.0944051
-0.0463052
-0.0768943
-0.0782858
-0.0945663
-0.0488092
0.0960012
0.0667223
-0.0808435
-0.0860226
-0.127756
-0.0967956
-0.147386
-0.178887
-0.215675
-0.256432
-0.302703
-0.0824975
-0.086694
-0.0873116
-0.0801252
-0.00856793
0.0293763
0.00988404
0.0131882
-0.0990064
-0.0381942
-0.0736349
-0.0639094
-0.063124
0.0544937
-0.138893
-0.208989
-0.0526309
-0.0851225
-0.0604823
-0.0901663
0.0603656
0.067417
-0.0633891
-0.0656029
-0.111678
-0.0767676
-0.131078
-0.169905
-0.206593
-0.249163
-0.298452
-0.349649
-0.104264
-0.0951114
-0.091862
-0.116353
0.0209352
0.10126
-0.0173423
-0.113254
-0.0906863
-0.061679
-0.17526
-0.129531
-0.231285
0.0633951
-0.197164
0.0100468
1.07772
-0.0566349
-0.0103639
-0.337658
-0.0965706
-0.053702
-0.0291813
-0.0863357
-0.0444089
-0.108925
-0.153067
-0.19615
-0.237437
-0.285908
-0.33346
-0.370431
-0.383118
-0.113595
-0.116868
-0.108242
-0.134138
-0.130546
0.0197577
0.100823
-0.055434
-0.107503
-0.0842391
-0.0651187
-0.22239
-0.0284537
-0.0484638
0.402579
0.0500364
1.0836
1.12334
1.13586
1.02827
1.02852
0.970101
-0.66173
-0.249232
-0.148223
-0.112597
0.0145961
-0.0465183
-0.0388392
-0.080649
-0.132075
-0.178126
-0.37119
-0.226173
-0.272018
-0.322455
-0.394609
-0.400869
-0.411659
-0.38663
-0.13695
-0.136478
-0.153434
-0.148469
-0.125111
-0.025661
-0.0109671
-0.090991
-0.103952
0.335307
0.118039
1.01249
-0.105099
1.19946
1.16319
1.16927
1.07738
1.19629
1.21826
-0.314916
-0.362481
-0.329545
0.946337
0.921667
0.992713
0.909313
1.01621
0.10932
0.164558
0.160887
0.0233631
-0.0274718
-0.399249
-0.104773
-0.109039
-0.155197
-0.20486
-0.360142
-0.260981
-0.310939
-0.437816
-0.419144
-0.424828
-0.437729
-0.427432
-0.43807
-0.166538
-0.159467
-0.174338
-0.165294
-0.142066
-0.122747
-0.0967264
-0.153511
-0.104155
0.778433
0.616063
1.24441
1.23168
1.15581
1.27665
1.30525
-0.247512
-0.192628
-0.195105
-0.484605
-0.319616
0.826834
0.81184
0.842243
0.94175
1.08247
-0.0894002
0.445933
0.43581
0.03227
-0.0789185
-0.394408
-0.421003
-0.114617
-0.130985
-0.173795
-0.234384
-0.354397
-0.302843
-0.473123
-0.451166
-0.484236
-0.474731
-0.51822
-0.59752
-0.19796
-0.185765
-0.120211
-0.203172
-0.178687
-0.158322
-0.138515
-0.223501
-0.108749
-0.0778368
-0.104868
-0.263156
1.20462
1.32554
1.32262
1.23106
1.37069
1.40675
-0.797902
-0.018676
0.187739
-0.0815334
-0.097565
0.629352
0.410045
-0.313777
-0.168868
0.716079
0.842469
0.987367
1.16472
-0.15554
0.0239447
0.132113
-0.027397
-0.1017
-0.401082
-0.445925
-0.128889
-0.144116
-0.191756
-0.269496
-0.354525
-0.528427
-0.491496
-0.55299
-0.553596
-0.655211
-0.8675
-0.232009
-0.244839
-0.216078
-0.123119
-0.134699
-0.17452
-0.194034
-0.150589
-0.245344
-0.215851
-0.521977
-0.250622
-0.239656
-0.0476035
1.24974
1.23322
1.16507
1.4286
1.42526
1.32432
1.48541
1.53886
-0.632285
-1.19529
0.0451221
0.200076
0.071912
0.402511
0.584023
-0.0993211
0.0130987
0.711458
0.870306
1.07774
1.27785
-0.257185
-0.225659
-0.229385
-0.0576271
-0.0470148
-0.101424
-0.414415
-0.477178
-0.136595
-0.160727
-0.225735
-0.32335
-0.539958
-0.597705
-0.643851
-0.66704
-0.869556
-1.1716
-1.45098
-0.269955
-0.282535
-0.145863
-0.14079
-0.165297
-0.185384
-0.209578
-0.281915
-0.242621
-0.202817
-0.0788351
0.366278
1.3252
1.30188
1.23937
1.06964
1.16145
1.54943
1.55032
1.43793
1.59931
1.63051
-0.394088
-0.99802
-1.71261
0.550415
0.253347
0.353001
0.129562
0.184628
0.730924
0.967126
1.22419
1.41104
0.302464
-0.185729
-0.252238
-0.261353
-0.101225
-0.0213699
-0.0521096
-0.394129
-0.477972
-0.198577
-0.13527
-0.285775
-0.568063
-0.663932
-0.7562
-0.829906
-1.09986
-1.38824
-1.76777
-2.05773
-0.315438
-0.320892
-0.120905
-0.147966
-0.166122
-0.187292
-0.223677
-0.318071
-0.283432
-0.244957
-0.048759
0.0238429
1.43141
0.967541
1.3412
1.27437
1.14692
1.67598
1.68029
1.56763
1.72198
1.73571
1.70103
-0.110617
-2.17654
-0.695844
-1.36908
0.336922
0.547728
0.369417
0.824659
1.15456
1.38459
1.56176
0.0280821
-0.113826
-0.173971
-0.141638
-0.0751092
0.0938102
0.0347146
-0.481425
-0.371584
-0.264361
-0.182543
-0.60168
-0.736807
-1.00269
-0.872935
-1.30752
-1.96687
-1.62628
-2.26189
-2.49952
-0.359685
-0.35663
-0.355829
-0.134781
-0.155879
-0.19539
-0.246943
-0.321116
-0.282379
-0.0872874
-0.0734074
1.55464
1.43129
0.822714
0.955422
1.3349
1.21894
1.04387
1.79429
1.78934
1.70841
1.84535
1.83969
1.81612
0.158998
-2.72855
-0.33639
-1.78264
-0.950634
0.495026
0.658252
0.394098
1.02754
1.33413
1.55743
1.72953
0.0198899
-0.0203944
-0.0983305
-0.102031
0.0295574
0.178554
-0.00202014
-0.511223
-0.358692
-0.268673
-0.680312
-0.836046
-1.16724
-1.00315
-1.55541
-1.96327
-2.3256
-2.7346
-3.0965
-0.401032
-0.393642
-0.396158
-0.364869
-0.14214
-0.16325
-0.218438
-0.28109
-0.323224
-0.0768772
-0.0422283
1.67721
1.58241
1.51661
1.4141
0.634309
0.814931
0.926007
1.29197
1.15667
1.0052
0.421829
1.88402
1.87176
1.79039
1.85932
1.95433
1.91827
1.95413
0.0570062
-2.27478
-0.508293
-1.31444
0.656775
0.862506
0.429104
1.91237
1.22005
1.53079
1.75934
0.0454265
-0.0419644
-0.0820528
-0.0521826
-0.163658
0.0327988
0.0557782
-0.533539
-0.345547
-0.896034
-0.758166
-1.3182
-1.66337
-1.15501
-2.21122
-2.84217
-3.36253
-0.416366
-0.449932
-0.444809
-0.415584
-0.37323
-0.156909
-0.182162
-0.254394
-0.324435
-0.0771926
-0.0297764
-0.396708
-0.339708
1.69466
1.61855
1.50234
1.37911
0.643028
0.810988
0.944977
1.23252
1.08843
0.45601
0.207777
0.00815844
-0.160105
-0.274535
1.91013
1.94359
1.8782
1.79989
2.09514
2.00612
2.03618
1.99951
-0.0357531
-1.73917
-0.792587
1.04787
0.783638
0.641907
0.382241
2.20263
1.98313
1.44612
1.77984
0.0309472
-0.11077
0.0174437
0.498053
-0.351234
-0.0492083
-0.724724
-0.493501
-1.56042
-1.15072
-1.92888
-2.78837
-3.50361
-0.464368
-0.49067
-0.474196
-0.433831
-0.378985
-0.177178
-0.220592
-0.303617
-0.0575362
-0.0714102
-0.33414
-0.440546
-0.371218
1.71354
1.60559
1.4774
1.32185
0.661311
0.834006
1.00229
1.15636
0.496714
0.25442
0.333727
-0.331011
0.0550015
-0.244574
-0.114101
1.89869
1.96436
1.81757
2.03564
2.24993
2.12652
2.08062
2.38119
-0.247331
-1.13999
1.28084
1.15692
1.02086
0.999454
0.31977
2.071
2.34312
1.78057
0.21901
0.14801
0.901274
0.566017
-0.251211
-0.391184
-0.877031
-0.564988
-1.67074
-2.56247
-3.49795
-0.519243
-0.532714
-0.505546
-0.451597
-0.368954
-0.228957
-0.280433
-0.0937232
-0.106908
-0.411158
-0.520307
1.83083
1.71825
1.58595
1.42802
1.23786
0.691348
0.884145
1.05968
0.534783
0.378504
0.189035
-0.416267
-0.367441
0.0383132
-0.278231
-0.137583
1.92366
2.0036
1.9443
2.12134
2.55364
2.39877
2.23056
2.53042
1.9463
-0.483695
1.71643
1.59032
1.43842
0.940084
0.234274
2.36174
2.20593
2.52562
0.197999
0.635939
2.1606
0.458172
0.476489
-1.23387
-0.7686
-2.15797
-3.33664
-0.587158
-0.581778
-0.544785
-0.462379
-0.298118
-0.362546
-0.155626
-0.149188
-0.522053
-0.627725
1.83594
1.71174
1.54981
1.33438
1.13065
0.738728
0.935037
0.573615
0.381815
0.187583
-0.503701
-0.441358
-7.47774e-05
-0.334384
-0.183261
2.0832
2.02815
2.28245
2.93827
2.71579
2.73353
2.55294
2.00237
1.88051
1.55896
0.983374
2.2834
2.72037
3.03261
0.120916
0.849288
-0.129685
-0.198239
-1.67422
-0.963148
-2.98716
-0.655773
-0.645862
-0.590457
-0.295596
-0.454157
-0.346463
-0.648257
-0.720467
1.6937
1.84698
1.45793
1.20358
0.998097
0.783113
0.602933
0.39484
0.170902
-0.62644
-0.554872
-0.0558323
-0.432382
-0.262406
2.13718
2.23336
2.52587
3.24818
2.98169
2.83285
3.49452
2.04409
2.1289
1.73235
2.66849
3.11665
3.54148
-0.208311
0.081139
0.121266
-0.195373
-2.39561
-1.35346
-0.746205
-0.717253
-0.487091
-0.603347
-0.621126
-0.76063
-0.842892
1.62981
1.82848
1.32122
1.07336
0.836908
0.638129
0.401563
0.140896
-0.753827
-0.685149
-0.120436
-0.550699
-0.357417
2.2526
2.42251
2.80865
3.51038
3.17259
3.92299
2.02896
2.44873
3.12974
3.71692
4.23603
-32.1654
-0.239851
0.284391
0.33627
-0.404383
-31.4254
-0.85259
-0.764839
-0.888933
-1.00597
-0.709748
-0.912181
-0.993543
1.7509
1.51177
1.19622
0.909895
0.689031
0.412031
0.10572
-0.924267
-0.853648
-0.19858
-0.699732
-0.475088
2.65357
2.34197
3.28945
3.97025
4.59807
2.52017
2.07509
-34.2451
-32.1657
-0.148239
0.149335
0.193371
-29.3945
-31.2999
-31.6625
-0.989223
-1.04009
-1.17265
-1.19773
-0.825227
-1.11774
-1.19056
1.71603
1.41323
1.03269
0.778872
0.429566
0.0512861
-1.17503
-1.0941
-0.311665
-0.638693
-0.90607
3.0914
3.90842
4.73257
2.9378
2.51671
2.07859
-35.2265
-34.3145
-32.1665
-0.504159
-28.8036
-31.0403
-33.8594
-30.874
-1.32377
-1.49526
-1.54158
-1.34443
-1.43007
-1.46565
1.64085
1.24277
0.940879
0.469673
-0.00790888
-1.56718
-1.43731
-0.44926
-0.843305
-1.17678
3.75758
4.71411
2.85089
3.50922
2.52527
2.06852
-36.0622
-35.3734
-34.3483
-32.1506
-34.9216
-27.378
-28.5621
-30.7876
-33.9954
-30.6623
-1.76597
-1.98096
-2.32072
-1.92795
-1.76935
-1.93927
1.51313
1.01687
0.453784
-0.103117
-2.15655
-1.86654
-0.628488
-1.1015
-1.51627
4.54676
3.21319
4.19955
2.76708
2.20176
-36.0721
-35.4982
-34.3648
-32.1303
-33.726
-35.1619
-27.5217
-27.3795
-28.4337
-30.5604
-33.9093
-30.6478
-2.30514
-2.89597
-2.43835
-2.56379
-2.69998
1.6069
1.00461
0.376806
-0.258741
-2.53299
-2.25142
-0.862791
-1.40895
-1.88477
3.72355
3.13528
2.4547
-38.6441
-35.9468
-35.5848
-34.3748
-32.1072
-33.7947
-35.3247
-25.4103
-27.56
-27.3488
-28.3417
-30.3532
-33.7841
-30.5677
-3.21664
-3.36484
-3.41159
-3.36278
1.74522
1.00909
0.259057
-0.473017
-3.13245
-2.76608
-1.15622
-1.77324
-2.31534
-41.4668
-38.7523
-35.83
-35.6464
-34.3863
-32.0846
-33.9303
-35.484
-24.9794
-25.4292
-27.5898
-27.3007
-28.2695
-30.1681
-33.6402
-30.3997
-46.1333
-41.6606
-38.8255
-35.7427
-35.6917
-34.4003
-32.0615
-34.0444
-35.656
-21.0046
-25.1597
-25.4444
-27.5933
-27.2739
-28.1978
-30.0491
-33.492
-30.198
-48.7744
-45.9734
-41.7708
-38.8866
-35.6841
-35.7271
-34.4166
-34.1303
-35.845
-25.3356
-20.8069
-25.2924
-25.4437
-27.5777
-27.2633
-28.1212
-33.3726
-93.9564
-48.3157
-45.9447
-41.8491
-38.9166
-35.6457
-35.7498
-34.1804
-36.0192
-20.0852
-26.1167
-20.8157
-25.3568
-25.4422
-27.5529
-27.2692
-33.3192
-30.0639
-103.252
-47.1817
-46.0012
-41.9084
-38.9226
-35.6262
-34.1812
-21.6782
-20.2047
-26.9414
-20.8449
-25.3813
-25.4427
-27.5279
-27.2761
-44.1834
-30.3368
-112.211
-45.9414
-46.082
-41.9397
-38.9122
-34.1505
-20.9391
-21.745
-20.274
-27.7276
-20.8797
-25.3834
-25.4495
-27.5183
27.0529
-51.6498
-29.8765
-120.306
-44.6927
-46.1543
-41.9472
-38.8881
-20.8914
-20.8966
-21.8233
-20.3453
-28.4564
-20.9243
-25.377
-25.4575
34.6269
30.018
-59.9752
-29.2079
-127.445
-43.4316
-46.1587
-41.9311
-20.4723
-20.8357
-20.8562
-21.8784
-20.4311
-29.1627
-20.9532
-25.386
47.194
35.6468
32.972
-67.6799
-28.4344
-134.189
-42.275
-46.0925
-20.479
-20.4036
-20.7811
-20.8223
-21.9167
-20.5279
-29.8459
-20.9428
49.9519
48.0475
36.7048
35.1213
-74.681
-27.5368
-141.255
-41.4936
-20.9058
-20.4077
-20.3304
-20.7281
-20.7966
-21.9448
-20.6224
-30.2716
49.9392
50.4974
48.9432
37.5793
36.9108
-81.5556
-26.7459
-146.581
-20.9539
-20.8478
-20.3328
-20.2625
-20.678
-20.7774
-21.9666
-20.6911
47.5949
50.5371
51.1033
49.6649
38.4373
38.6024
-89.2111
-26.6211
-21.6922
-20.9086
-20.7918
-20.2639
-20.2025
-20.6329
-20.7617
-21.9812
34.882
48.3312
51.1338
51.6528
50.2457
39.3834
40.3324
-95.6879
-20.0388
-21.7633
-20.8672
-20.7371
-20.203
-20.1507
-20.5978
-20.7502
27.442
36.0287
49.1999
51.6774
52.1333
50.729
40.3925
41.5781
-25.3323
-20.1235
-21.8424
-20.8327
-20.6852
-20.1504
-20.1122
-20.5807
-43.9315
30.5152
37.2377
49.9143
52.1567
52.5574
51.1052
41.0435
-21.0007
-26.168
-20.1864
-21.899
-20.8069
-20.638
-20.1112
-20.0945
-30.2263
-51.6481
33.6141
38.2305
50.4938
52.5793
52.9111
51.3237
-24.8933
-20.7937
-27.0046
-20.2539
-21.9392
-20.7877
-20.601
-20.0931
-94.1784
-30.7819
-60.1473
35.9181
39.1549
50.9685
52.9286
53.1117
-25.3725
-25.0737
-20.7951
-27.7902
-20.3344
-21.97
-20.7721
-20.5831
-49.1842
-103.869
-30.4395
-67.9856
37.8867
40.1107
51.3439
53.1257
-27.5304
-25.3968
-25.2012
-20.822
-28.5167
-20.424
-21.9942
-20.7605
-45.9007
-48.6725
-112.912
-29.8229
-75.1007
39.7885
41.0398
51.5586
-27.2701
-27.5554
-25.4122
-25.26
-20.8571
-29.2196
-20.5136
-22.01
-41.7578
-45.7624
-47.4888
-121.051
-29.0766
-82.1059
41.6217
41.5978
-30.6081
-34.3263
-27.2772
-27.5846
-25.413
-25.2811
-20.901
-29.8894
-20.5759
-38.4248
-41.928
-45.7576
-46.2401
-128.246
-28.1998
-89.7771
43.0589
-28.2528
-30.5407
-34.3564
-27.2457
-27.5898
-25.4129
-25.2775
-20.9281
-30.3025
-33.9797
-38.5476
-42.0243
-45.829
-44.9823
-135.027
-27.4061
-96.2416
-34.7221
-31.048
-27.9343
-30.6113
-34.2864
-27.1971
-27.5758
-25.4151
-25.2698
-20.9173
-33.878
-38.629
-42.0994
-45.9217
-43.7192
-142.136
-27.3249
-35.081
-35.8978
-31.839
-30.8485
-27.816
-30.5666
-34.2041
-27.1703
-27.5523
-25.4219
-25.2768
-35.3344
-34.16
-33.9968
-38.6941
-42.1557
-46.0002
-42.5466
-147.487
-35.2598
-35.9458
-31.7928
-30.5765
-27.7152
-30.4349
-34.095
-27.1635
-27.5289
-25.4308
-35.4191
-34.2357
-34.1239
-38.7275
-42.1905
-46.007
-41.8025
-35.407
-35.8388
-31.7586
-30.3357
-27.6404
-30.2467
-33.9771
-27.1677
-27.5192
-35.5367
-34.2435
-34.2206
-38.7388
-42.2017
-45.9398
-35.5641
-35.7228
-31.7303
-30.1226
-27.5916
-30.0385
-33.8857
-27.1735
-35.6269
-34.2509
-34.2775
-38.7296
-42.1877
-35.7378
-35.634
-31.7027
-29.925
-27.5409
-33.8508
-35.6913
-34.2578
-34.2848
-38.7071
-35.9
-35.5759
-31.6736
-29.7546
-27.4751
-35.7384
-34.2688
-34.2557
-35.5391
-31.64
-29.6439
-35.7754
-34.2843
-35.5207
-31.6168
-35.8002
-34.301
-3.24486
-3.62951
-3.68143
-4.19494
-4.17261
-4.74157
-3.17427
-3.64066
-2.71787
-3.96063
-4.02748
-4.58038
-4.66943
-5.33274
-5.33414
-6.00112
-8.06075
-8.82774
-8.88911
-9.80394
-9.62551
-5.98112
-6.65792
-4.70997
-5.32857
-3.55876
-4.09087
-2.60521
-3.01625
-2.13398
-10.5553
-10.1889
-4.15176
-4.33849
-4.93438
-5.04162
-5.65369
-5.86946
-6.63315
-6.65892
-7.42372
-7.365
-8.07563
-8.82498
-9.6093
-9.59876
-10.4383
-10.6188
-11.6202
-11.5139
-6.60189
-7.31703
-7.28415
-8.0736
-8.00502
-8.79333
-9.28041
-5.21353
-5.84421
-3.91159
-4.47322
-2.83434
-3.26514
-1.94096
-2.27179
-1.46033
-8.66251
-9.06327
-12.4826
-13.4032
-10.1232
-10.9126
-11.8779
-4.23582
-4.46985
-5.09261
-5.33344
-6.03162
-6.1411
-6.88328
-7.18084
-8.0087
-8.09137
-8.88662
-9.65828
-10.499
-10.4548
-11.2935
-11.2477
-12.2147
-12.3811
-13.0828
-13.4069
-14.5053
-14.0141
-14.8876
-5.68548
-6.46943
-6.5765
-7.25409
-7.44676
-4.2668
-4.88735
-3.01032
-3.50487
-2.01447
-2.36067
-0.70264
-1.18432
-1.44841
-7.11612
-7.88715
-7.635
-8.78446
-10.151
-14.4629
-12.5221
-13.9128
-11.382
-12.5493
-4.14837
-4.49678
-5.16133
-5.45525
-6.17894
-6.47788
-7.20817
-7.41079
-8.22292
-8.49576
-9.17764
-9.66035
-11.2026
-10.8254
-12.2267
-12.2409
-13.3081
-13.2331
-13.8693
-14.6554
-15.1186
-15.178
-16.0919
-15.805
-15.6456
-16.2069
-16.3348
-17.5301
-4.90234
-5.72441
-5.32658
-6.04018
0.142382
-0.339761
-3.34898
-4.08121
-2.02714
-2.50685
-0.515459
-1.08492
-1.35522
1.03103
0.585534
-5.66301
-6.45296
-6.3061
-18.6669
-17.5986
-19.3006
-7.65775
-8.96594
-10.2595
-11.4375
-13.7214
-14.8545
-16.5249
-15.8651
-12.6902
-13.7765
-3.91246
-4.33706
-5.05599
-5.45706
-6.21568
-6.5537
-7.31445
-7.6368
-8.73357
-8.40612
-9.6146
-9.81095
-10.712
-11.2712
-12.8854
-12.3652
-13.8299
-13.9465
-14.6301
-15.2062
-15.0749
-20.6277
-21.0387
-19.7845
-16.1793
-15.9489
-16.9371
-16.8965
-17.2516
-18.0574
-17.6464
-19.7769
-19.0334
-29.4195
-30.14
-29.7994
-32.4058
-31.2346
-30.7697
-30.9995
-30.6828
-3.67455
-4.2586
-3.71487
-4.4005
0.510974
-0.0592637
-2.11496
-2.68935
-0.252799
-0.940078
-1.26559
1.92332
1.54963
1.57443
1.06426
-3.94207
-4.8269
-7.65984
-4.48521
-6.0074
-29.1136
-27.5408
-23.5005
-22.7415
-21.3627
-16.9776
-18.3706
-19.1382
-20.5896
-7.87554
-8.97807
-8.82971
-10.3625
-11.6938
-12.998
-14.2992
-15.122
-16.4945
-29.8201
-30.7839
-32.3366
-30.6972
-32.1331
-33.7944
-32.643
-31.7985
-33.0614
-32.8836
-3.38877
-4.00684
-4.81743
-5.31557
-6.13904
-6.56688
-7.48076
-7.76991
-8.57009
-8.84799
-10.2388
-9.7697
-11.0921
-11.2494
-12.2629
-12.8358
-12.875
-14.2125
-13.8033
-14.9748
-15.6821
-15.6298
-16.6531
-16.7324
-16.3685
-21.9853
-22.9037
-25.025
-24.1612
-21.6445
-20.731
-17.6749
-17.7542
-18.3589
-18.6266
-20.5977
-19.4067
-19.0837
-25.6174
-27.6024
-27.1672
-27.7161
-27.0972
-29.1853
-29.4284
-30.0112
-32.0848
-31.1102
-31.5494
-31.2681
-31.6558
-31.7665
-32.3082
-31.9991
-31.5434
-31.6648
-2.04431
-2.55305
-1.83838
-2.53685
1.01049
0.318395
0.148289
-0.660268
-0.965479
2.76439
2.45238
2.58165
2.15478
2.24432
1.69556
-1.6987
-2.32373
-3.64
-3.96918
-5.50083
-6.39499
-2.93378
-24.7462
-27.1919
-26.1104
-29.9353
-28.6089
-24.0313
-25.2179
-23.4032
-21.4394
-6.45735
-21.1823
-17.4005
-19.7702
-18.7327
-7.53533
-8.51229
-10.057
-10.5478
-12.1122
-12.5615
-14.3448
-15.337
-17.0893
-30.0294
-30.9021
-29.8919
-32.8806
-32.5994
-34.1747
-32.3557
-32.2125
-31.4104
-31.9471
-33.1797
-32.8745
-2.72613
-3.37025
-2.13824
-2.19583
-4.32797
-5.0362
-6.00541
-6.48531
-7.49601
-8.02901
-9.11433
-9.23238
-10.525
-11.3718
-10.2524
-12.0109
-12.6119
-13.5633
-14.0839
-14.8985
-13.5543
-14.0919
-15.5851
-15.622
-15.6475
-16.4636
-16.3392
-16.4361
-16.421
-17.1676
-17.2776
-17.9822
-18.3464
-22.5789
-23.566
-24.6443
-24.0194
-22.2553
-21.5667
-19.3113
-19.6158
-21.3971
-20.4226
-20.3349
-25.4596
-25.1064
-25.5152
-28.2914
-27.1483
-29.0048
-28.7797
-30.4686
-27.5643
-30.0291
-30.2965
-31.7364
-31.3496
-31.0019
-32.248
-30.3167
-31.4126
-0.440994
-0.246929
-0.650347
0.0311083
1.686
0.928246
0.737331
0.293319
3.58188
3.34657
3.6034
3.24948
3.45463
2.96548
3.07695
2.41836
4.30709
4.16524
4.89114
4.91392
5.47878
5.33296
1.09189
-0.507677
-1.2911
-1.33165
-5.17751
-3.43557
-1.56205
-0.784632
-28.6128
-28.1903
-26.5781
-22.4301
-25.6898
-24.2269
-4.88924
-6.63621
-8.40917
-22.7224
-18.5754
-21.1504
-19.929
-10.1594
-11.2179
-12.7327
-13.2362
-14.8557
-15.405
-17.4062
-28.948
-32.6796
-33.3096
-32.1793
-31.2034
-34.2025
-35.2162
-34.3833
-35.1968
-33.0253
-33.0104
-33.5884
-34.3276
-33.9423
-1.31309
-1.82457
-4.31587
-4.37023
-3.12959
-3.7297
-5.68976
-6.24696
-8.04839
-8.09411
-9.19142
-9.66654
-11.271
-11.2229
-12.1085
-12.6966
-13.6625
-13.9843
-14.9084
-14.7506
-15.5009
-16.1036
-17.0256
-16.681
-17.3041
-16.9669
-17.6801
-17.7156
-17.9429
-17.8735
-18.6605
-19.0004
-19.6481
-20.0242
-24.1697
-22.9137
-23.796
-23.2246
-22.2193
-20.6235
-21.6089
-21.0421
-21.4547
-26.3371
-24.9004
-27.4056
-25.8843
-27.8993
-28.1196
-27.4163
-31.031
-28.8652
-32.914
-31.034
5.53771
5.80782
0.941283
1.14654
2.44107
1.69146
1.82432
2.12972
2.42674
4.50787
4.21096
4.51538
4.12575
4.39832
3.88248
4.13
3.45958
5.35284
5.21067
6.02117
6.03207
6.63105
6.44229
2.96718
2.54132
2.47354
0.691005
-3.08396
-1.51744
0.157719
1.40384
-24.7088
-26.7282
-27.9185
-3.16016
-5.18875
-7.0534
-9.1016
-10.9638
-22.5749
-24.4057
-18.8497
-21.6785
-12.9854
-14.1973
-16.3781
-16.7946
-19.0324
-28.7972
-31.0212
-30.5827
-33.7239
-31.236
-32.8264
-34.6296
-34.6356
-35.3565
-33.4141
-34.46
-34.6985
-35.1054
-33.9273
-1.11869
-3.10748
-2.2829
-1.92894
-2.37099
-4.07333
-4.97228
-5.35396
-4.07588
-5.21439
-7.91442
-8.15676
-9.57358
-9.04761
-11.9362
-12.1808
-14.3231
-13.2934
-13.2729
-14.0645
-14.2802
-15.3041
-15.6128
-16.3188
-16.7361
-17.7507
-18.3078
-18.2104
-17.9852
-18.5705
-18.6868
-18.2532
-19.5212
-19.4332
-19.4543
-19.9153
-21.3393
-24.7086
-24.2775
-23.2649
-22.078
-21.5032
-22.9178
-22.5905
-22.0541
-25.5425
-25.4143
-27.3685
-26.5037
-27.6509
-27.772
-27.89
-27.5879
5.54504
5.92616
6.58788
6.92911
3.64326
3.02107
3.33445
4.38445
4.28731
5.67127
5.39399
5.8486
5.26862
5.54059
4.88569
4.9938
6.48897
6.59585
7.33909
7.29465
8.01567
7.68573
6.15907
4.91992
4.24292
3.41971
4.66152
7.65689
-1.36546
0.29349
2.43246
4.1073
-1.20916
-28.5357
-26.3964
-2.94859
-5.23804
-7.41807
-9.74446
-12.8135
-14.9177
-14.4234
-21.3055
-25.9424
-23.5963
-17.7756
-18.3487
-20.9541
-31.9582
-29.9294
-35.0134
-33.5531
-35.617
-35.6589
-36.1348
-35.2609
-35.3757
-34.0506
-2.96243
-2.40534
-2.71763
-3.803
-3.9262
-3.30255
-4.04301
-5.79602
-6.84216
-8.02771
-6.40432
-8.10636
-8.09444
-8.9546
-12.9775
-12.217
-13.7265
-13.8928
-16.7813
-15.0206
-14.8984
-14.1751
-16.1558
-17.6033
-17.1343
-18.3589
-18.5479
-18.3341
-19.1678
-18.3624
-19.5032
-20.0039
-20.0583
-18.8749
-20.6517
-20.0551
-20.5563
-21.7309
-22.7629
-25.7744
-25.0436
-21.8399
-21.962
-22.87
-22.4187
-25.9994
-25.8167
-27.0564
-26.232
-27.553
-26.9762
-3.52525
-3.58866
5.33603
5.84434
6.47822
6.94146
7.66248
8.21385
5.93784
5.79358
6.73782
7.81536
8.42553
7.10318
6.82562
7.31699
6.60176
6.9827
8.08788
8.08758
8.91574
8.82676
9.66883
9.11155
9.63953
7.6861
6.2744
6.6407
10.3802
9.56061
1.03313
2.9678
5.68567
7.29115
1.3614
-0.649056
-2.78209
-32.3999
-28.6715
-5.73968
-8.78009
-12.133
-14.3886
-18.3178
-19.7524
-23.5044
-27.3035
-30.3522
-25.0647
-37.5794
-35.079
-38.4071
-38.6895
-39.1
-37.9405
-38.9879
-38.1465
-4.27675
-4.01053
-5.15778
-5.22629
-6.07627
-5.42244
-6.28771
-7.71785
-8.60531
-9.70965
-8.44382
-9.70337
-13.714
-11.0138
-12.1954
-13.1307
-14.119
-14.0938
-15.2814
-17.5631
-16.062
-17.4388
-15.9001
-18.7132
-18.0499
-20.3129
-18.7523
-19.64
-18.9511
-19.1264
-19.014
-20.0072
-20.3989
-20.3518
-20.5184
-20.1601
-21.3225
-21.1516
-21.8518
-22.1412
-23.3869
-22.3081
-24.3978
-23.4797
-23.6358
-25.213
-24.9462
-25.5769
-25.0552
-3.97036
-4.14403
-4.9638
-4.97843
4.89015
5.49043
6.0736
6.64152
7.29463
7.96157
9.50711
8.80873
4.26577
4.88305
10.5939
10.2094
8.37217
8.90452
8.89738
8.56598
9.14969
10.081
9.89301
10.8796
10.6261
11.2717
10.4358
12.0974
12.5938
13.4447
12.5827
9.35821
10.3886
6.29373
4.29317
10.6733
9.10485
5.267
2.74227
-1.218
3.62699
-4.13788
-6.85402
-37.5271
-33.8212
-11.1547
-15.6529
-22.5003
-24.3487
-33.497
-38.4279
-32.757
-39.8833
-39.9978
-41.5339
-40.9905
-42.2726
-40.968
-5.8308
-6.27392
-6.94056
-7.1005
-8.14701
-7.57119
-9.01273
-9.86176
-10.8741
-11.9163
-10.886
-11.9216
-14.8396
-13.8819
-13.1853
-14.1667
-17.7692
-14.9702
-15.3125
-16.9457
-16.4444
-18.2063
-17.5133
-17.8093
-17.8353
-19.3117
-18.8094
-19.9208
-20.1071
-19.7047
-19.7789
-19.4937
-19.4577
-20.4438
-20.613
-20.6806
-21.0174
-20.4464
-20.6885
-20.2855
-21.8185
-21.331
-23.602
-22.446
-24.7867
-23.5309
-21.866
-25.0681
-24.5673
-4.25718
-4.48823
-5.19105
-5.41285
-6.18061
-6.39091
5.38467
6.06901
6.62352
7.36258
10.8175
9.00964
9.97461
8.13242
3.53169
4.12684
4.52406
5.22286
2.71943
3.31008
1.85942
2.42947
12.5972
11.2472
10.8659
11.851
11.1165
11.9133
12.3863
12.061
13.2497
12.4716
12.7778
12.085
11.9002
14.0739
15.0241
15.2645
16.5465
15.9732
13.7484
13.0962
10.0528
8.13637
14.4292
13.1016
8.93206
6.54285
-0.30573
-5.19652
6.48938
2.62385
-8.56697
-13.9728
-45.3212
-42.7383
-23.1663
-31.6502
-40.7511
-46.1501
-39.6811
-46.3229
-44.2689
-46.3659
-46.0282
-7.35154
-8.14389
-10.2968
-10.3698
-9.39625
-9.40751
-11.1463
-12.1638
-13.0788
-13.9288
-13.4561
-14.1668
-16.0168
-15.0047
-14.7019
-15.2926
-18.026
-17.8717
-16.9298
-18.3735
-16.9273
-17.418
-18.6645
-18.9683
-18.221
-19.4514
-19.4347
-20.6748
-20.2648
-20.2633
-20.1898
-20.1334
-20.758
-20.7206
-20.549
-20.7323
-20.6258
-20.4036
-21.1899
-20.576
-21.2683
-23.6348
-21.4564
-21.7799
-25.1553
-21.6887
-7.76112
-4.2145
-4.51037
-5.23248
-5.57758
-6.32744
-6.63705
-7.32819
-4.18894
-4.47602
-3.99127
-4.35344
-3.66304
-4.06698
0.99859
1.49164
0.141786
0.564024
-0.694042
-0.320533
-1.44566
-1.16773
-3.2591
-3.70241
-2.72574
-3.19205
-2.12861
-1.92294
-2.60493
5.69118
6.54522
7.177
8.15215
10.0899
11.0173
8.9766
3.60224
4.29565
4.67242
5.43294
2.59034
3.24897
1.52256
2.12706
10.8838
13.5836
14.9974
13.7219
14.221
13.8405
15.3939
14.7647
15.8216
14.9597
13.1394
13.3417
11.8663
16.4356
16.8005
17.1467
18.4916
18.3631
20.0881
20.0896
17.735
17.2862
14.4114
12.3515
18.9315
17.5978
12.6622
9.81994
-10.494
-1.3032
-8.94206
8.40046
2.91926
-20.4239
-24.7386
-47.7603
-50.1512
-35.4766
-65.8312
-55.7546
-54.1335
-46.7731
-8.80693
-9.57528
-11.7083
-11.8969
-12.0021
-10.7205
-11.464
-13.5264
-13.9994
-15.106
-15.3914
-15.0096
-15.9808
-15.6791
-16.3761
-17.1851
-16.2454
-19.4199
-18.8716
-17.7259
-18.083
-18.8906
-18.5403
-19.5043
-19.4518
-20.3932
-20.4021
-20.5687
-20.4661
-20.9443
-20.9304
-20.8477
-21.1572
-20.8846
-20.9684
-20.9372
-20.6371
-21.053
-20.6389
-20.4847
-24.7773
-20.7044
-9.10982
-7.58614
-8.3955
-5.12867
-5.53828
-6.25257
-6.64498
-7.31565
-4.90279
-5.3005
-4.61876
-5.06424
-4.2075
-4.6822
0.489487
1.00505
-0.482356
-0.0625469
-1.43914
-1.06301
-2.23656
-2.01501
-3.65987
-4.17279
-3.00679
-2.78986
-3.55174
5.86811
6.89351
7.45151
8.72754
9.54486
3.47549
4.25448
4.51952
5.42376
2.19333
2.91332
0.879333
1.54801
8.93552
11.2155
9.77278
17.2364
16.9883
16.4396
18.2464
17.4555
18.0387
15.9697
14.3262
14.0938
12.2693
20.239
18.9336
19.0956
21.9471
21.8805
23.9625
24.0663
22.18
22.3311
19.1448
17.1161
24.1595
22.6564
17.453
13.8753
-13.1373
-21.6841
-2.22614
-12.0527
11.0921
3.37535
-28.8269
-30.5552
-40.3041
-87.8677
-80.1548
-10.0525
-10.6919
-11.6291
-12.7179
-13.4423
-13.2102
-13.2475
-12.6693
-16.0352
-16.6197
-17.2019
-17.2173
-16.4502
-17.7425
-17.0539
-17.8952
-18.2172
-18.5574
-18.2498
-18.0678
-19.7461
-19.4148
-18.8835
-19.0875
-19.7518
-19.4565
-20.1533
-20.4306
-20.6382
-20.6596
-21.1651
-20.9996
-21.0335
-21.1532
-21.3869
-21.3458
-21.3936
-21.3205
-19.9983
-21.5801
-20.8181
-30.1341
-9.04739
-9.89871
-7.73473
-8.62925
-5.97594
-6.44533
-7.29736
-5.77357
-6.28843
-5.31456
-5.89607
-4.68298
-5.26954
-0.257809
0.222613
-1.33392
-0.91501
-2.38981
-2.01928
-3.22027
-3.03723
-4.02604
-3.85297
-4.61278
5.76936
7.01027
7.63956
7.18767
3.00181
3.87629
4.05396
5.09664
1.49418
2.27758
0.00867203
0.79316
9.28469
7.83813
11.5987
10.0772
17.4563
17.4204
21.0628
20.3145
19.6512
18.7252
21.3886
21.0686
12.4124
16.8137
15.2354
14.1272
23.3729
23.2514
25.8057
25.5256
27.052
27.9144
26.5238
28.0086
24.0413
22.3438
28.7616
27.5361
23.6713
19.7553
21.5323
-18.7792
-28.5263
13.9872
-6.0372
-17.6515
-32.2189
-28.1799
-13.8478
-10.2192
-11.0415
-11.735
-12.7222
-13.6014
-15.9017
-14.4745
-15.3587
-17.6908
-17.2425
-18.7452
-18.8113
-17.2591
-18.5739
-19.0897
-19.2034
-19.3582
-18.9386
-19.2454
-19.4977
-19.3932
-19.3507
-20.2201
-20.0213
-19.7595
-19.8377
-20.1572
-21.0431
-20.573
-20.7598
-21.0885
-21.104
-21.2533
-21.2468
-21.0517
-21.1678
-21.8489
-21.148
-9.10095
-9.81997
-7.20067
-7.74235
-8.6411
-6.60075
-7.24059
-5.91616
-6.57398
-5.18358
-5.85604
-1.20472
-0.726441
-2.43449
-1.98772
-3.54414
-3.24074
-4.37086
-4.22929
-5.05843
7.1024
5.32591
6.20904
5.8249
2.3105
3.19553
4.16584
3.38045
0.711081
1.52746
-1.00026
-0.21556
9.06476
7.08108
5.74335
11.3875
9.63676
17.9109
20.6844
19.5883
20.4539
24.9444
23.5884
24.7824
22.6669
22.9422
14.951
12.4473
17.6583
16.3055
19.251
27.6078
27.1382
30.855
33.3041
30.3958
31.1671
31.7707
32.466
33.4392
28.7623
29.7274
29.8658
25.4837
27.0537
25.7187
21.2161
-21.5002
-39.509
-36.0764
-15.8453
-10.2841
-14.3956
-14.8911
-11.3099
-11.598
-12.4493
-12.9868
-13.6786
-14.3194
-16.1863
-15.9634
-17.5493
-17.2567
-19.756
-19.7997
-18.7278
-18.9669
-20.1951
-20.0094
-19.3673
-19.3428
-20.0059
-20.0897
-20.1311
-20.6596
-20.5194
-20.3398
-20.5576
-20.9216
-20.7986
-21.0973
-21.033
-20.9978
-20.9739
-21.017
-21.0555
-10.2852
-8.01144
-8.60402
-9.36515
-9.66924
-7.30893
-8.02771
-6.50905
-7.21332
-5.65182