/*--------------------------------*- C++ -*----------------------------------*\
  =========                 |
  \\      /  F ield         | OpenFOAM: The Open Source CFD Toolbox
   \\    /   O peration     | Website:  https://openfoam.org
    \\  /    A nd           | Version:  8
     \\/     M anipulation  |
\*---------------------------------------------------------------------------*/
FoamFile
{
    version     2.0;
    format      ascii;
    class       volScalarField;
    location    "14000";
    object      epsilon;
}
// * * * * * * * * * * * * * * * * * * * * * * * * * * * * * * * * * * * * * //

dimensions      [0 2 -3 0 0 0 0];

internalField   nonuniform List<scalar> 
4109
(
0.117468
0.131145
0.120867
0.129884
0.135541
0.131509
0.136725
0.120775
0.145299
0.145123
0.143158
0.147259
0.120016
0.1347
0.139663
0.150927
0.151602
0.150014
0.151986
0.14115
0.121785
0.130575
0.131762
0.158831
0.160146
0.165315
0.120035
0.133796
0.118552
0.160476
0.149185
0.143121
0.13261
0.131279
0.137936
0.163076
0.164098
0.176558
0.137126
0.119756
0.134455
0.1371
0.122418
0.166563
0.154522
0.552375
0.250709
0.148882
0.143816
0.132456
0.138995
0.170777
0.178451
0.192212
0.150522
0.137737
0.117445
0.135028
0.139376
0.147568
0.144065
0.676753
0.177315
0.163067
0.157181
0.214514
0.552374
0.151029
0.143465
0.143799
0.207831
0.184805
0.236317
0.227419
0.224585
0.155866
0.155601
0.143982
0.134869
0.144295
0.140623
0.14355
0.149293
0.152092
0.182475
0.249379
0.590822
0.800474
0.810419
0.188968
0.184677
0.169517
0.163121
0.157874
0.189041
0.422806
0.151273
0.144028
0.237085
0.220717
0.209839
0.242332
0.248356
0.245916
0.251896
0.165719
0.161249
0.15552
0.141137
0.154474
0.207953
0.147206
0.151786
0.154743
0.16134
0.819478
0.302857
0.401524
0.56661
0.895541
0.84703
0.251408
0.206332
0.194386
0.178849
0.172038
0.165672
0.157374
0.429662
0.162604
0.15482
0.241512
0.227104
0.260361
0.251883
0.27434
0.256568
0.172095
0.169839
0.169567
0.155082
0.160973
0.21104
0.152184
0.157548
0.162779
0.166804
0.798261
0.47435
0.91614
0.599118
0.925804
0.284628
0.214462
0.20367
0.186773
0.17915
0.172491
0.166187
0.159653
0.415395
0.14945
0.235695
0.221824
0.269644
0.248224
0.279166
0.283649
0.300085
0.182716
0.178208
0.176978
0.16394
0.169642
0.22669
0.159222
0.165603
0.16892
0.176769
0.556317
0.972204
0.579939
1.00931
0.984647
0.313289
0.197387
0.207055
0.188715
0.172229
0.180788
0.17054
0.473873
0.155963
0.219138
0.230588
0.263616
0.24429
0.278158
0.297222
0.296313
0.338056
0.190363
0.188165
0.189476
0.177748
0.171334
0.228512
0.165789
0.171663
0.177974
0.183811
0.602758
1.0537
1.07889
0.666277
1.09664
0.310771
0.198463
0.210152
0.184847
0.178416
0.496612
0.168717
0.221466
0.234392
0.257909
0.247681
0.273648
0.29623
0.311801
0.335234
0.375038
0.20244
0.19697
0.196601
0.189103
0.178955
0.241342
0.179825
0.17246
0.211963
0.185977
0.194914
0.591039
1.15131
0.698362
1.19324
1.19334
0.329086
0.200871
0.208844
0.190326
0.547318
0.171992
0.224059
0.234168
0.26209
0.250339
0.277486
0.289834
0.315064
0.338442
0.362229
0.422392
0.213116
0.205304
0.202633
0.222026
0.181136
0.24536
0.184168
0.225183
0.203815
0.196864
1.24156
0.615515
1.29075
0.766872
1.32874
0.338575
3.64985
0.202894
0.215118
0.577132
0.178899
0.223586
0.237632
0.26306
0.249422
0.279759
0.293522
0.308307
0.33749
0.364643
0.402126
0.412958
0.479059
0.210093
0.219835
0.203514
0.234337
0.236736
0.186849
0.255208
0.199698
0.216297
0.207085
0.639364
1.36606
1.41533
0.770301
1.4449
0.353679
4.40738
3.87582
4.60697
3.18424
3.9592
2.78974
0.751809
0.187755
0.231893
0.23845
0.254165
0.252566
0.267561
0.280591
0.294009
0.311392
0.42399
0.327688
0.361238
0.397176
0.478459
0.541667
0.510046
0.617858
0.231728
0.225024
0.247546
0.251647
0.227121
0.199408
0.271787
0.207346
0.219421
0.6991
1.52041
1.50327
0.357057
9.80429
7.17486
4.72242
3.39321
4.36372
5.47821
0.724371
0.718617
0.810411
3.02079
2.61985
2.79068
2.54537
2.91514
1.38714
0.219226
0.305988
0.287328
0.273939
0.464694
0.284907
0.295613
0.311873
0.330418
0.42252
0.349641
0.387942
0.533201
0.479672
0.58986
0.576224
0.721148
0.806613
0.248663
0.251309
0.265023
0.264859
0.241316
0.231316
0.209936
0.26935
0.223009
0.789568
1.81161
10.1273
7.33936
3.60962
4.35717
5.52844
0.787731
0.840137
0.920336
0.843767
0.898342
2.13266
2.32175
2.24651
2.52334
2.99091
2.06875
1.18202
0.318474
0.328541
0.292149
0.454859
0.47188
0.310683
0.308342
0.329141
0.351503
0.414618
0.373177
0.542322
0.509188
0.595643
0.647277
0.729696
0.766512
0.276543
0.265319
0.232793
0.293498
0.281783
0.254491
0.245423
0.319437
0.236784
0.224544
0.330628
0.867951
9.84249
11.2001
7.49129
3.58597
4.45296
5.70717
0.830641
1.00247
1.18956
0.939052
1.02763
1.82948
1.47207
0.933202
1.00112
1.9927
2.18588
2.5446
2.95255
2.48317
2.13109
0.605222
0.345412
0.325284
0.44396
0.473825
0.325193
0.328341
0.349737
0.374207
0.400022
0.553597
0.513289
0.605108
0.660802
0.698565
0.758244
0.302253
0.319378
0.295075
0.248684
0.249057
0.270971
0.286961
0.259836
0.334763
0.307203
1.72591
2.49486
0.241296
0.235143
10.2517
7.29755
7.04484
11.4057
7.76151
3.63366
4.54875
5.91913
0.912761
0.805852
1.07055
1.20277
1.13502
1.4044
1.66362
1.0369
1.12286
1.90799
2.14635
2.52699
3.06518
3.27092
3.08746
3.87739
0.641553
0.409802
0.34828
0.429296
0.462463
0.350677
0.346672
0.370388
0.400717
0.498965
0.540404
0.586574
0.63925
0.693382
0.739233
0.773232
0.33738
0.335561
0.262452
0.261986
0.276741
0.293221
0.312759
0.358075
0.327079
0.264369
0.361011
0.458461
10.664
7.53975
6.47381
4.31497
4.3917
11.5843
7.60072
3.7155
4.14697
4.95762
1.00671
0.876719
0.838714
1.61549
1.25986
1.35025
1.15896
1.24828
1.86929
2.11717
2.63669
3.13222
0.944682
3.87783
3.9222
4.47719
0.854061
0.455407
0.38679
0.429775
0.462374
0.371143
0.373322
0.398424
0.498412
0.539005
0.584337
0.635693
0.680297
0.713927
0.770653
0.78289
0.376176
0.37787
0.283054
0.282784
0.298944
0.315767
0.331772
0.385257
0.349436
0.332945
0.283582
0.302709
10.4477
3.29171
6.16611
5.39711
4.35535
11.7404
7.70914
3.51002
4.33029
5.22201
6.51452
1.11569
0.862336
0.976294
0.867314
1.29764
1.56127
1.41971
1.87386
2.27455
2.71537
2.99761
0.994348
4.63646
4.8129
5.59028
0.963858
0.532633
0.421882
0.460089
0.42606
0.396681
0.401697
0.49467
0.535264
0.627015
0.578132
0.667737
0.709719
0.711793
0.759965
0.823953
0.421507
0.407905
0.417834
0.304296
0.303464
0.33032
0.34941
0.372163
0.364652
0.306071
0.349499
10.9353
7.30173
2.47821
2.7169
4.9653
4.35675
3.59392
8.10778
11.6782
3.65402
4.28726
5.04612
6.20935
1.23862
0.892836
1.06792
0.919246
0.979826
1.46353
1.57339
1.37164
1.94505
2.32959
2.63831
3.13335
1.47391
5.55471
5.89883
6.51463
1.20707
0.61048
0.444691
0.463032
0.429008
0.429591
0.502863
0.534682
0.617392
0.580799
0.681159
0.711792
0.749129
0.798986
0.85711
0.474619
0.456775
0.45167
0.400132
0.330298
0.332456
0.351184
0.365319
0.381387
0.330776
0.412409
11.7556
8.623
6.4432
5.50839
1.92308
2.16862
2.59469
4.1624
3.56008
3.08902
1.56117
8.09184
11.4655
11.6747
3.6375
4.28798
5.73851
5.04662
1.19567
0.943883
1.04419
0.973715
1.51542
1.70893
1.33248
3.13816
2.00076
2.24162
2.7031
1.59794
6.75796
7.27362
8.13383
0.473431
1.44721
0.63113
0.466627
0.466593
0.553997
0.531775
0.63635
0.64375
0.598481
0.691274
0.752918
0.811263
0.537123
0.500035
0.485586
0.428653
0.414886
0.351333
0.347284
0.371955
0.394283
0.355383
0.440629
0.617021
0.702066
8.36457
6.67936
5.12869
4.42389
1.77569
2.19127
2.62916
3.42764
2.94203
1.4646
1.24731
1.07337
0.86072
0.799973
10.8309
7.80641
10.8555
8.13343
3.16462
3.67723
4.21667
5.60405
1.17295
0.996241
1.0563
1.72703
1.52246
1.33607
1.26962
2.69359
2.68788
1.97713
2.33248
1.95461
9.2254
8.37628
9.37201
0.665827
1.5571
0.501353
0.55761
0.639125
0.583225
0.686671
0.732798
0.786202
0.541475
0.520549
0.46288
0.440208
0.418149
0.380345
0.375293
0.39912
0.513461
0.384193
0.741298
0.619381
0.680215
6.409
5.41963
4.19619
3.58392
1.79217
2.24733
2.47653
2.82512
1.57428
1.23732
1.30377
0.760503
1.04561
0.825783
0.900504
8.01285
6.67113
6.2525
5.15083
3.00251
3.52707
4.60312
2.63039
1.13366
1.0573
1.64541
1.40684
1.532
1.36024
1.22197
2.36244
2.40651
2.00183
1.804
11.3058
10.5279
11.3648
1.0771
1.74687
0.552602
0.325158
0.635609
0.700504
0.759609
0.561334
0.498989
0.479265
0.452833
0.426529
0.403018
0.396361
0.462741
0.401859
0.691125
0.616146
5.04643
5.20355
4.42532
3.43665
2.91191
1.92208
2.12035
2.36741
1.64355
1.45871
1.28052
0.768993
0.819099
1.128
0.891278
0.984568
5.79421
5.17641
5.13596
4.29851
2.32756
3.11933
3.40962
2.69069
4.32648
1.1215
1.72947
1.56774
1.47289
1.30098
1.19121
1.80687
1.99252
2.03128
1.84977
15.1854
13.6381
15.649
3.07284
0.61782
0.90131
0.681402
0.743258
0.54147
0.513413
0.483969
0.459919
0.433654
0.429523
0.471756
0.437826
0.676729
0.587682
4.25038
4.32604
3.54113
2.79965
2.41798
1.82953
2.01411
1.58802
1.39072
1.23524
0.73914
0.801274
1.10345
0.887542
0.980629
4.27265
4.13339
3.34532
1.89333
2.0972
2.38375
2.6044
3.55148
1.50034
1.37258
1.25155
1.64509
1.58003
1.79791
2.64463
20.8838
27.3965
9.452
0.677893
1.11705
0.739192
0.560257
0.525762
0.4952
0.46285
0.458289
0.506346
0.641492
0.605448
3.51507
3.45936
2.81686
2.32353
2.05179
1.73467
1.51063
1.32712
1.17599
0.701314
0.770843
1.04884
0.849662
0.941949
3.40615
3.40176
2.78919
1.95536
2.1278
2.30828
1.81823
2.82758
1.41158
1.30882
1.50971
1.54038
1.67697
4.70911
46.1662
45.4989
21.3367
0.754546
2.34305
0.566036
0.536535
0.494039
0.502083
0.618581
0.663219
0.617523
2.83005
2.81309
2.33797
1.98757
1.76636
1.53933
1.35298
1.20186
0.722681
0.795328
1.07356
0.873576
0.967578
2.78428
2.77103
2.32925
1.85494
1.98324
1.68678
2.347
1.35724
1.43021
1.45601
1.52722
1314.59
10.0961
77.9465
81.0474
51.351
1482.17
0.57955
0.541244
0.55647
0.553663
0.848798
0.669739
0.63024
2.30199
2.32658
1.99986
1.72339
1.50583
1.33252
1.18733
0.734069
0.800822
1.07025
0.880699
0.966507
2.21336
2.23581
1.98269
1.6831
1.53066
1.95586
2.00959
1105.69
1207.67
23.406
139.911
140.026
1582.08
1368.83
1951.54
0.594757
0.541555
0.613939
0.610641
1.4184
0.685712
0.625129
2.01128
2.00478
1.7267
1.50891
1.33495
1.1959
0.749651
0.819722
1.08029
0.982876
0.896165
1.97308
1.75619
1.5274
1.74006
1.81119
1.77997
765.308
976.105
1148
53.4541
1532.9
1304.33
1833.55
1961.79
0.621455
0.617013
0.683085
3.0541
0.69939
0.634822
1.67086
1.68281
1.48697
1.32162
1.19071
0.750479
0.832169
1.08565
0.991898
0.909469
1.76057
1.57274
1.623
1.65276
1.63803
1.61587
713.735
612.016
896.96
1138.73
1897.32
1679.28
1524.23
1292.58
1911.24
1981.08
0.660363
0.681183
0.756268
0.681864
0.700274
0.740032
1.54804
1.37306
1.2523
1.13419
0.81067
0.822033
1.06372
0.964322
0.918441
1.57055
1.52481
1.52905
1.50797
1.48162
557.986
507.664
864.094
1195.18
2190.96
1964.85
1473.61
1725.45
1572.55
1349.36
2039.12
2022.59
0.695954
0.723822
0.739425
0.761955
0.822633
1.45043
1.33284
1.23495
1.13748
0.853107
0.878215
1.06159
0.990506
0.932847
1.42033
1.38876
1.34338
2455.85
445.49
441.092
884.213
1369.72
2212.69
2138.03
1260.2
1496.1
1817.23
1713.78
1528.12
2269.07
2098.66
0.726057
0.75257
0.787708
0.820082
1.3213
1.27177
1.20442
1.13311
0.866017
0.909151
1.06606
1.00829
0.953814
2922.6
2425.69
366.558
407.095
990.2
1881.88
2276.89
2426.21
1155.79
1260.43
1550.07
1968.61
2040.72
2051.59
2678.24
2237
3281.76
3048.07
2400.4
314.256
408.431
1333.72
4454.75
2420.99
2930.11
989.073
1163.34
1290.36
1654.66
2223.62
2896.14
4638.38
3463.35
2480.28
3394.86
3675.9
3102.05
2415.91
292.627
487.537
3078.89
2703.13
3776.97
876.897
999.893
1193.19
1365.63
1844.87
2686.65
6776.53
5315.44
3453.22
3907.27
4096.3
3120.56
2526.8
321.708
958.964
3284.26
5364.2
596.9
869.585
1048.55
1261.89
1514.69
2208.11
3718.01
12568.8
2795.87
3916.05
4585.06
4517.52
3182.69
2828.64
573.177
4693.67
129.292
537.047
868.51
1148.91
1397.46
1807.73
3042.64
7543.81
3063.3
3311.1
4523.43
5459.54
4926.5
3412.75
3636.92
10114.1
83.7198
121.444
493.377
873.64
1332.53
1665.99
2486.76
6174.52
2418.4
3583.36
4063.25
5417.3
6598.6
5399.51
4131.79
6822.74
91.1749
88.1436
117.578
463.024
887.937
1679.36
2289.61
4978.15
1335.68
2821.23
4207.52
5299.68
6782.26
8039.45
6297.07
7096.38
97.2218
99.1885
95.7624
118.785
447.072
922.966
2459.85
4556.54
1075.05
1555.28
3309.36
4970.96
7619.06
8912.12
9722.77
9536.91
97.6947
105.688
110.741
107.942
128.806
449.811
1032.78
5230.73
931.048
1168.04
1777.29
3984.18
5943.7
13014.6
12202.8
11296.3
92.3585
106.142
117.891
127.702
127.76
160.319
520.502
1298.85
947.28
1045.47
1275.04
2046.73
4979.13
7506.43
28327.8
10826.4
85.3095
100.282
118.329
135.869
154.168
163.413
249.58
1060.35
1075.02
1058.15
1172.25
1422.29
2424.86
6671.43
10984.8
78209.9
128.444
89.742
111.807
136.297
164.025
200.824
246.351
662.645
1322.56
1177.46
1182.83
1334.9
1654.69
3036.27
12538.5
14123.2
577.322
121.149
97.4218
128.798
164.457
213.959
307.819
600.105
2509.22
1512.85
1295.23
1344.53
1575.81
2076.08
4243.36
65624.2
901.603
523.266
117.717
109.705
155.396
214.421
328.771
763.868
2907.25
2989.32
1681.19
1455.9
1585.36
1989.32
3005.56
8008.98
1000.65
888.28
481.795
119.34
129.7
202.386
329.372
817.127
2632.02
3323.6
3700.29
1848.38
1706.75
2000.63
2869.97
6045.36
1174.18
1015.57
885.491
451.992
129.954
165.668
310.215
817.223
3161.84
3013.27
3837.46
4947.44
2038.31
2151.74
2888.95
5717.33
1268.78
1185.42
1069.43
890.654
436.163
162.008
249.038
767.063
3264.13
3428.65
3457.9
4524.64
7431.32
2348.6
3115.2
5793.57
1486.1
1271.44
1220.39
1175.99
905.838
438.921
251.591
601.835
3228.88
3710.04
3700.07
4000.48
5541.45
12822.6
3461.82
6261.05
1705.76
1513.65
1305.27
1295.57
1367.78
943.861
509.513
662.106
2903.02
3603.97
4290.88
4069.84
4733.99
7219.66
25689.3
8595.58
2081.53
1891.03
1763.54
1573.7
1385.69
1439.85
1727.5
1057.45
1048
2436.56
3024.37
4007.57
5023.63
4577.99
5879.52
10096.2
65665.3
1696.84
2082.95
1987.25
1868.42
1684.65
1541.86
1722.39
2538.75
1341.16
2175.36
2406.39
3076.52
4416.62
6031.3
5406.11
8045.91
13146.7
1848.77
1532.19
1655.6
2103.75
2130.34
2032.97
1882.47
1847.63
2376.51
5421.22
2184.93
2379.94
3094.51
4823.83
7409.96
7322.22
14246.5
1912.51
767.189
1437.47
1435.09
1656.06
2149.74
2379.96
2303.09
2257.78
2553.05
4759.86
851.61
1214.08
2240.38
2393.05
3160.73
5311.77
9194.69
9403.32
2070.55
600.918
1323.2
1380.74
1716.64
2234.06
2818.19
2787.26
3117.07
5150.21
678.45
1084.25
2377.55
2500.29
3394.94
6242.97
11438.2
2343.86
480.513
1260.84
1379.04
1878.39
2385.26
3654.23
3856.9
6353.99
563.556
1003.99
2651.72
2796.86
4114.45
9526.87
2826.46
395.874
1254.41
1449.47
2242.88
2651.35
5631.78
7834.87
489.626
972.55
3217.21
3592.16
7031.65
3658.12
339.229
1321.3
1653.5
3194.82
13421.2
450.589
999.491
4587.08
6728.83
5225.57
314.808
1521.3
2238.1
7538.09
448.599
1121.84
9843.47
343.423
2101.32
5136.49
527.298
1509.25
610.721
4999.55
1008.98
3464.42
0.906037
0.866225
0.890943
0.890835
0.920143
0.916333
0.929832
0.929214
0.947147
0.833827
0.85474
0.862941
0.886688
0.893342
0.916566
0.926059
1.00138
1.02598
1.04903
1.08608
1.11278
0.946259
0.958971
0.945218
0.946328
0.954567
0.949083
0.973685
0.965995
0.992034
1.15614
1.17654
0.80615
0.828095
0.839598
0.861508
0.87302
0.892845
0.90947
0.929281
0.945683
0.96402
0.983325
1.00314
1.03417
1.05797
1.10918
1.13554
1.2256
1.24017
0.976862
0.991791
1.0114
1.02756
1.05183
1.07386
1.11439
0.972259
0.976754
0.974675
0.97364
0.992945
0.981211
1.02188
1.00876
1.04181
1.11404
1.1439
1.31072
1.33651
1.2235
1.21767
1.2994
0.786529
0.805907
0.822428
0.841341
0.85896
0.8776
0.897739
0.915319
0.943159
0.963827
0.989136
1.00838
1.077
1.09702
1.15195
1.16579
1.24439
1.26781
1.34978
1.38617
1.48001
1.49371
1.62745
0.999361
1.00867
1.02781
1.04397
1.06909
0.99795
0.999804
1.00857
1.00126
1.03385
1.01939
1.09376
1.06965
1.05299
1.07845
1.13792
1.14192
1.2251
1.25094
1.57218
1.36588
1.48731
1.31666
1.3625
0.77557
0.793409
0.813515
0.832544
0.853539
0.871575
0.894102
0.914468
0.935832
0.960972
0.991448
1.03306
1.16338
1.10576
1.22609
1.25583
1.34695
1.36498
1.45049
1.67585
1.72283
1.74155
2.01101
2.0432
1.94648
2.09066
2.09316
2.81285
1.02165
1.03131
1.04778
1.06374
1.14623
1.118
1.02625
1.02336
1.04387
1.03342
1.09658
1.07437
1.05995
1.19813
1.16828
1.08895
1.12835
1.15952
3.64542
3.07084
5.67779
1.23218
1.2354
1.32364
1.35506
1.61035
1.64116
2.30742
1.93674
1.55245
1.61923
0.78138
0.795375
0.820579
0.836536
0.863055
0.879687
0.909044
0.929028
0.991521
0.968479
1.04746
1.07501
1.17032
1.18685
1.36456
1.36072
1.54472
1.55828
1.73304
1.76386
1.94615
22.5912
21.185
12.4897
2.0095
2.23287
2.40821
2.67671
2.95194
3.10158
3.09201
11.6155
4.93101
1049.7
1328.24
1243.69
1827.53
1541.15
1655.98
1768.14
1836.88
1.04703
1.04918
1.07232
1.0864
1.14232
1.11815
1.05712
1.05061
1.10025
1.08145
1.07019
1.252
1.21984
1.18996
1.16376
1.10698
1.15422
1.25091
1.18761
1.24204
894.991
629.049
109.679
57.4425
25.0145
2.45903
4.12776
5.43144
14.8906
1.3664
1.37223
1.38181
1.37241
1.59628
1.62963
1.77289
1.70685
2.28779
961.172
1258.26
1472.89
1399.3
1619.71
1764.6
1798.45
1857.44
1809.29
1760.52
0.872321
0.838163
0.902815
0.891111
0.949116
0.941368
0.999667
0.995606
1.05278
1.05077
1.12037
1.11918
1.23846
1.26916
1.31908
1.33599
1.16991
1.45613
1.27001
1.32072
2.81122
2.80733
3.3862
3.81261
3.72556
58.3803
94.171
300.489
182.515
56.3465
39.1302
6.34642
8.39706
12.1468
11.448
36.1097
16.7652
14.8216
390.103
930.552
614.5
675.476
956.017
1183.38
1309.86
1303.23
1608.59
1596.79
1606.1
1519.17
1824.12
1883.8
1917.92
1741.64
1891.1
1811.78
1.07565
1.07597
1.097
1.11296
1.14477
1.12134
1.10973
1.09199
1.0817
1.30377
1.26924
1.23593
1.20897
1.18381
1.1606
1.12804
1.17411
1.18093
1.24299
1.24818
1.30953
1.2402
185.228
492.058
331.51
848.215
525.126
92.2363
198.227
70.569
23.6624
1.37286
17.4359
3.04767
6.29016
4.36671
1.54865
1.48415
1.67011
1.56295
1.70552
1.69305
1.93668
1.79928
3.06259
949.684
1332.27
846.842
1460.93
1650.78
1261.05
1490.1
1772.03
1777.12
1795.2
1616.05
1797.43
5.17019
1.16061
103.691
29.1503
2.42411
1.18756
1.78985
1.13816
1.48469
1.09169
1.32577
1.29394
1.24898
1.40613
1.37208
1.61163
2.29336
1.44948
2.74413
4.13753
4.25754
7.77738
22.2833
8.64577
9.2895
39.2858
42.6601
14.8783
13.5978
19.0707
19.9687
26.6811
28.309
122.073
185.484
344.689
238.064
132.751
83.7247
49.3234
54.2181
99.0981
66.7201
73.0022
608.467
480.446
648.882
963.327
854.296
1267.36
1172.26
1578.53
1415.57
1475.61
1678.87
1847.61
1773.71
1672.68
1856.56
1938.31
1945.47
1.13372
1.10419
1.10201
1.12192
1.14425
1.1257
1.11747
1.14619
1.3585
1.32212
1.28275
1.25211
1.22405
1.19715
1.1811
1.15871
1.40807
1.35052
1.40941
1.46357
1.42428
1.45732
1.19843
1.19406
1.20087
1.22577
1.38852
1.29573
1.33422
1.25612
505.754
397.193
234.221
35.5629
172.504
96.0508
1.4731
1.75757
1.66975
44.9258
4.37012
12.5478
7.75327
1.98415
1.90429
2.08672
2.01356
2.40511
2.10137
5.13817
465.838
1040.83
1313.43
901.4
645.842
1472.89
1208.11
1518.19
992.2
1796.47
1840.72
1923.24
1805.36
1665.72
222.259
246.262
58.9975
11.5554
252.705
218.879
30.4847
11.1311
21.3174
6.40758
13.4795
4.24049
9.34227
2.35467
4.41442
10.0739
30.2799
18.3858
37.322
20.0325
26.5683
65.0706
101.777
111.562
56.9205
53.9451
120.645
137.448
62.5584
70.1367
95.1558
96.2273
126.474
103.602
402.417
215.671
290.836
268.987
210.876
189.663
238.937
141.093
220.593
715.427
527.233
1197.68
937.068
1045.63
1487.58
1333.5
1675.73
1590.66
1779.7
1720.97
1.43958
1.40581
1.131
1.14783
1.15066
1.13509
1.13312
1.15844
1.17487
1.32593
1.28102
1.2634
1.22853
1.21536
1.18978
1.18098
1.16283
1.3706
1.33306
1.3531
1.37933
1.33166
1.36311
1.1935
1.20217
1.21676
1.26485
1.52106
1.38172
1.41064
1.30374
91.707
191.346
291.45
1.63464
1.94017
1.9038
2.34494
2.31628
23.6735
102.261
7.07285
21.6061
2.57697
2.33443
3.99777
2.98057
8.20041
314.339
604.426
518.036
1137.51
1171.8
1386.77
1802.13
1939.57
1030.49
1658.64
2063.23
2000.71
2022.11
1875.15
223.093
198.715
102.354
249.123
231.572
290.708
234.685
151.645
319.671
395.979
225.185
107.5
175.431
66.7909
124.81
50.8141
65.8153
89.1068
64.3504
143.235
111.005
103.028
103.666
113.175
219.911
241.7
259.819
295.886
188.746
181.472
321.61
339.334
206.518
226.598
290.392
283.398
325.106
552.333
456.719
517.291
358.675
458.246
467.902
415.266
503.805
1028.88
827.353
1386.19
1239.58
1594.99
1516.24
1676.97
1611.72
1.48239
1.42109
1.37562
1.34151
1.16679
1.16267
1.16433
1.17398
1.19195
1.29984
1.27313
1.24797
1.22833
1.20848
1.1949
1.18532
1.29692
1.31646
1.27661
1.30357
1.27943
1.30286
1.20923
1.20836
1.23917
1.33248
1.25466
1.21369
1.68115
1.52464
1.54404
1.41826
1.8155
234.325
140.65
2.20804
2.2205
2.53998
2.60528
3.44053
4.10014
2.5364
26.7086
127.273
31.9233
9.78761
6.30294
28.606
587.88
389.254
1298.68
1036.68
1762.16
1888.44
2168.21
2180.88
2255.15
2141.46
6.54904
33.2108
256.862
280.89
64.4787
236.909
310.739
252.152
417.661
447.123
256.894
338.192
455.197
436.257
454.392
299.519
376.792
278.144
242.569
228.099
388.287
290.911
400.968
332.47
340.486
455.508
502.948
502.842
531.404
448.48
427.719
379.67
594.458
611.959
472.946
491.767
631.937
628.65
821.002
927.424
805.217
768.203
834.093
745.638
807.021
1283.34
1180.88
1453.72
1385.26
1492.94
1430.89
0.890138
1.61293
1.49827
1.4598
1.41379
1.35988
1.32535
1.29072
1.18096
1.18322
1.18233
1.18493
1.21501
1.26199
1.2458
1.22486
1.21285
1.1985
1.23197
1.25327
1.23239
1.25515
1.24468
1.26406
1.21315
1.27081
1.28425
1.43233
1.25598
1.28105
1.92392
1.60333
1.68218
1.4533
2.26511
2.71302
2.82228
461.877
188.036
2.9685
2.37675
9.00464
4.26408
41.7718
34.5098
22.9553
142.839
231.793
81.0862
1261.41
781.584
1932.55
1713.94
2236.84
2287.21
2503.39
2455.41
3.29804
20.3792
254.281
394.89
41.0947
148.926
413.966
329.863
325.715
438.789
344.948
274.509
602.001
411.704
540.989
576.305
579.233
583.89
581.523
505.817
496.503
622.384
596.163
604.306
626.388
752.631
708.488
724.048
730.312
747.987
716.099
856.367
645.27
696.873
875.787
836.832
790.239
804.115
931.377
930.915
1010.37
1012.45
1199.23
1053.81
1070.23
1307.33
1251.5
1303.69
1258.77
0.781584
0.836952
0.893287
1.51266
1.46198
1.44294
1.40826
1.39154
1.35813
1.31211
1.25438
1.28782
1.38026
1.40434
1.19924
1.18629
1.17895
1.18038
1.21522
1.19539
1.1911
1.20151
1.21511
1.20599
1.22682
1.2224
1.23845
1.22647
1.26239
1.31009
1.40559
1.45661
1.34503
1.83505
2.31722
1.59711
1.90904
2.59355
3.7055
2.87931
3.90102
7.52671
2.04177
914.447
535.238
37.8773
14.982
152.338
88.0159
401.769
712.847
301.156
1814.35
1582.04
2285.58
2399.32
2717.3
2723.45
2.41881
12.8115
215.297
451.602
24.6636
97.8973
464.633
483.334
258.641
289.793
473.281
335.325
544.279
478.418
267.333
344.072
668.467
503.152
566.551
538.423
624.421
679.783
678.103
631.896
661.388
720.617
705.047
707.974
857.155
807.017
771.058
755.9
704.886
847.184
869.54
953.197
892.909
901.677
974.575
988.354
956.687
969.371
999.666
1016.52
1189.23
1142.06
1053.8
1180.47
1155.75
0.769966
0.791102
0.82263
0.890032
0.933608
1.4484
1.36857
1.35775
1.33361
1.33293
1.23058
1.2768
1.25673
1.30488
1.33148
1.31988
1.30181
1.32665
1.28939
1.28725
1.24438
1.24589
1.23085
1.19018
1.18801
1.18896
1.19277
1.2231
1.18838
1.19738
1.20447
1.21109
1.20839
1.22414
1.2285
1.26087
1.35525
1.2965
1.42947
1.57973
1.53335
1.68713
2.2061
2.71992
1.90768
2.3043
3.28533
4.93449
15.2619
10.8973
9.39707
21.5816
76.0368
66.1666
1711.28
1161.51
336.188
312.18
801.824
1249.49
766.07
2263.56
2444.13
2798.2
2966.61
1.9568
7.67455
164.045
428.407
14.3295
57.5872
439.865
556.663
313.494
255.493
544.13
424.484
359.291
293.972
242.568
246.844
564.156
543.064
306.547
428.586
351.364
433.543
542.444
627.424
607.852
596.758
558.84
567.594
511.561
708.509
705.166
591.566
515.956
543.311
530.415
719.324
766.912
974.391
1007.64
1004.38
985.618
991.041
1011.63
1029.76
987.155
994.464
1.31834
0.778943
0.78607
0.806111
0.833529
0.867991
0.93375
0.978667
0.801644
0.799773
0.834597
0.826188
0.874325
0.857828
1.20022
1.21133
1.15695
1.16987
1.10948
1.12637
1.05916
1.08149
0.918332
0.896835
0.964482
0.938575
1.01109
1.03371
0.984241
1.29945
1.28969
1.27294
1.28009
1.24858
1.23759
1.26398
1.25785
1.25578
1.24176
1.26506
1.21756
1.22071
1.17622
1.18212
1.22968
1.19291
1.21002
1.19141
1.20774
1.21014
1.20633
1.213
1.21316
1.22397
1.234
1.23269
1.23219
1.22916
1.32651
1.25595
1.48529
1.3746
1.5705
1.83301
1.72841
2.04223
2.68155
3.92241
2.41923
3.06144
4.50578
13.6404
162.875
101.38
194.309
43.1951
178.393
459.277
571.011
2289.41
1852.52
1141.09
1866.79
1215.8
2889.5
2946.17
1.54361
4.90856
413.422
102.39
196.351
8.70358
34.8313
563.468
596.244
367.43
280.783
588.929
457.243
638.726
238.571
235.145
227.402
422.485
366.655
215.425
255.274
283.494
236.72
375.749
438.212
399.189
355.215
375.507
329.63
388.157
315.737
400.796
254.07
337.356
237.64
321.519
552.516
990.665
950.155
683.253
938.733
895.202
1.23596
0.973985
1.01904
0.812889
0.821286
0.84639
0.87934
0.918047
0.831008
0.833071
0.857634
0.85639
0.891426
0.885096
1.13584
1.14851
1.09661
1.11239
1.05468
1.07222
1.01244
1.03311
0.931131
0.918475
0.97075
0.992886
0.954538
1.24802
1.23878
1.22897
1.24424
1.23658
1.20137
1.20682
1.19661
1.21977
1.16453
1.17085
1.12433
1.13402
1.23017
1.2316
1.23101
1.24251
1.23513
1.24222
1.24436
1.23695
1.24811
1.26803
1.25049
1.25268
1.24841
1.37841
1.30151
1.31059
1.63901
1.45761
1.74228
2.20467
2.08114
2.59321
3.54897
7.71749
3.16829
4.97257
9.87498
74.4288
584.829
738.685
517.048
757.985
201.03
637.821
1122.8
1436.96
1943.91
3091.82
2335.17
1.3907
2.19839
4.32775
234.483
483.919
58.2029
143.016
14.7438
543.161
662.129
344.332
251.184
633.904
390.954
665.157
623.157
511.575
507.993
197.483
214.836
283.738
247.466
179.392
191.879
201.33
179.89
237.755
264.191
251.519
223.489
214.571
199.247
170.694
160.207
142.674
124.39
166.117
118.674
708.816
194.858
506.96
2929.52
1.02236
1.0995
0.926513
0.985586
0.848479
0.863836
0.894219
0.863373
0.866491
0.884297
0.885557
0.910724
0.909827
1.08792
1.10111
1.05082
1.06884
1.01253
1.03248
0.977004
0.999749
0.945328
0.96733
0.937097
1.20963
1.20818
1.20324
1.19712
1.15771
1.17084
1.16293
1.19195
1.1228
1.13472
1.08864
1.10001
1.23245
1.21767
1.25806
1.24788
1.32389
1.29694
1.34126
1.32946
1.28011
1.29549
1.34656
1.30456
1.27877
1.37902
1.29784
1.29819
1.52604
1.51484
1.84506
1.81783
2.61835
2.48125
3.95618
2.97898
5.64693
18.1764
4.41578
8.10507
52.429
254.298
504.123
1306.62
1435.52
1174
1236.1
1628.85
2026.79
2283.68
29.3469
1.18258
1.22767
2.01409
2.71877
8.90289
376.919
91.624
184.798
625.241
436.777
230.088
299.218
634.22
654.245
319.839
410.422
664.053
607.529
527.017
419.94
171.518
194.328
187.624
178.245
153.368
157.357
152.094
152.957
156.31
166.772
118.748
122.039
95.7567
96.1724
85.7838
82.9731
112.643
84.2665
1.00092
1.06093
0.890912
0.912769
0.956056
0.897157
0.913147
0.913435
0.917121
0.93531
0.934254
1.05517
1.07047
1.01955
1.04268
0.990109
1.01112
0.961231
0.983132
0.957367
1.20663
1.18318
1.18141
1.18427
1.12978
1.14634
1.17927
1.14623
1.09631
1.11461
1.06782
1.08324
1.26477
1.24071
1.24022
1.30518
1.27962
1.41898
1.40565
1.39415
1.42634
1.55247
1.50051
1.50269
1.46309
1.43875
1.37237
1.33754
1.51322
1.45103
1.56256
2.03356
1.79411
3.3594
3.48238
2.43595
3.27758
5.40782
5.82017
23.8319
73.2265
19.521
201.965
414.441
741.086
1401.29
1942.9
2010.73
2375.42
8028.7
136.879
1.10002
17.5508
45.8326
1.21672
1.31195
1.38028
2.25296
3.12013
7.99228
372.883
258.422
642.222
584.515
200.731
254.095
699.554
679.94
276.605
367.957
641.864
559.959
427.471
146.726
170.522
125.899
129.963
129.495
119.652
103.221
106.032
86.0016
89.722
80.515
81.7641
79.4807
82.2305
1.05199
0.934955
0.979881
1.01425
1.02524
0.932277
0.953066
0.943852
0.951831
0.957912
0.959453
1.03392
1.05669
1.00776
1.0302
0.981637
1.00507
0.980578
1.06155
1.17895
1.1779
1.1851
1.16166
1.13988
1.11595
1.18849
1.11464
1.09515
1.09132
1.25955
1.22227
1.28777
1.32975
1.33375
1.41566
1.39626
1.55816
1.59813
1.6557
1.63094
1.85359
1.84322
1.78094
1.59456
1.55487
1.75533
1.71572
1.89086
1.87989
2.66036
2.54662
6.37449
6.56282
6.08858
4.60235
35.575
26.2292
262.494
163.513
592.031
757.54
1115.39
1966.98
272.114
80.9035
134.657
1.25522
1.17114
12.4489
38.5992
1.34686
1.6206
2.19306
2.65892
7.9427
551.225
429.602
715.208
694.78
176.6
232.06
728.948
653.256
532.396
417.858
274.583
125.222
145.492
97.8982
107.16
104.577
86.4618
90.192
84.3616
84.9522
85.9964
87.683
1.11559
1.18109
0.983558
0.998293
1.0714
1.1398
0.97637
0.99086
0.977263
0.990037
0.989277
0.995773
1.05683
1.03962
1.01758
1.03431
1.01198
1.25363
1.09514
1.07889
1.07859
1.16915
1.17905
1.14502
1.23428
1.187
1.15815
1.12806
1.34403
1.33135
1.42544
1.39055
1.52534
1.51227
1.72263
1.67229
1.92194
2.02212
2.53154
2.34167
2.21229
1.99798
1.91867
2.0943
2.08787
2.41867
2.491
2.46136
5.29633
4.19361
38.6705
12.9862
17.6719
10.2734
284.269
155.397
747.766
518.182
1059.27
941.493
417.501
191.953
282.783
63.0428
124.037
1.43636
1.27541
11.9081
32.5197
2.60795
1.52954
5.3884
676.865
581.286
757.631
774.665
237.91
173.909
144.464
736.582
544.122
440.043
309.725
254.38
102.057
116.776
87.1448
91.0241
85.7308
85.5716
90.9557
89.4911
1.21529
1.32728
1.02769
1.0841
1.14422
1.25136
1.02512
1.05321
1.03572
1.01056
1.04903
1.04784
1.08205
1.05597
1.07435
1.33063
1.28652
1.14466
1.12965
1.14667
1.13444
1.19887
1.268
1.18075
1.20514
1.17396
1.52936
1.51991
1.45033
1.65867
1.62594
1.87593
1.99144
1.94457
2.34782
2.28675
4.16957
3.2197
3.32122
3.00329
2.81979
2.70727
3.82376
3.85845
3.74719
3.38723
6.43993
23.4212
16.2016
200.438
90.0382
94.5003
585.6
408.792
963.481
783.358
342.14
538.413
645.324
163.772
314.224
48.8028
114.628
1.46146
1.83409
7.57325
31.141
2.02736
4.61085
794.96
768.152
795.346
775.63
851.124
149.875
174.923
115.953
660.546
503.22
333.845
280.177
171.004
87.3742
97.3326
85.3375
83.4518
91.4517
88.6
1.37188
1.56931
1.10365
1.16596
1.25528
1.422
1.11154
1.0871
1.14714
1.1437
1.14105
1.13664
1.12925
1.42725
1.32351
1.19926
1.2104
1.18034
1.23735
1.3108
1.2583
1.31326
1.2524
1.85131
1.7621
1.71841
1.57861
2.28974
2.59696
2.39838
2.61261
2.96522
2.79393
3.8915
3.32958
4.98116
5.47022
5.377
3.63267
8.20422
8.53153
6.60209
75.2479
37.9764
201.59
183.246
507.989
399.441
799.196
707.578
365.508
547.707
677.041
165.406
323.539
45.0294
113.819
2.50989
1.83957
7.9351
5.33178
24.0402
672.084
890.129
880.646
890.072
814.811
864.267
702.791
898.863
126.711
97.0553