/*--------------------------------*- C++ -*----------------------------------*\
  =========                 |
  \\      /  F ield         | OpenFOAM: The Open Source CFD Toolbox
   \\    /   O peration     | Website:  https://openfoam.org
    \\  /    A nd           | Version:  8
     \\/     M anipulation  |
\*---------------------------------------------------------------------------*/
FoamFile
{
    version     2.0;
    format      ascii;
    class       volScalarField;
    location    "14000";
    object      k;
}
// * * * * * * * * * * * * * * * * * * * * * * * * * * * * * * * * * * * * * //

dimensions      [0 2 -2 0 0 0 0];

internalField   nonuniform List<scalar> 
4109
(
0.0294931
0.0310435
0.0297415
0.031013
0.0317424
0.0314665
0.0319628
0.0301485
0.0330108
0.032545
0.0325709
0.0333187
0.0298492
0.031691
0.032409
0.0337109
0.0334961
0.03351
0.0338681
0.0325536
0.0298998
0.0313755
0.0314093
0.0345923
0.0346237
0.0350342
0.029589
0.0316264
0.0298767
0.0348557
0.0335083
0.0328084
0.0313739
0.031291
0.0322224
0.0351654
0.0350532
0.0361742
0.0318928
0.0298461
0.0315746
0.0317702
0.0302764
0.0355139
0.0341217
0.0954807
0.0479423
0.0334854
0.0329018
0.0312445
0.0322424
0.0358538
0.0366372
0.0379046
0.0336101
0.031796
0.0293639
0.0318971
0.0323663
0.0331467
0.0328776
0.121497
0.0367272
0.035103
0.0344441
0.0416787
0.0870484
0.0337479
0.032768
0.0324856
0.0393814
0.0373379
0.0425474
0.0413715
0.0411864
0.0341544
0.0340534
0.0326711
0.031161
0.0328944
0.0325822
0.0329289
0.0334803
0.0336136
0.0384342
0.0452473
0.100137
0.131042
0.132413
0.0379105
0.0375049
0.0358032
0.0351128
0.0345493
0.0384911
0.0665272
0.0337303
0.0325641
0.0427003
0.0410166
0.0398859
0.0429949
0.043713
0.0432582
0.0434024
0.0352867
0.0347662
0.0339331
0.0321075
0.0341316
0.0388428
0.0333684
0.0338816
0.0341181
0.0346742
0.138199
0.0527448
0.0664435
0.089341
0.14002
0.137569
0.0432865
0.0397092
0.0385823
0.036838
0.0361073
0.0354207
0.0344097
0.0669208
0.0344511
0.033811
0.043123
0.0417124
0.0448116
0.0440366
0.0455689
0.0443332
0.035968
0.0356529
0.0355732
0.0337215
0.0348146
0.0399898
0.0339472
0.0345554
0.0350242
0.0352689
0.124858
0.0734838
0.140772
0.0934754
0.143827
0.0504009
0.0405643
0.0394826
0.0376552
0.0368704
0.0361798
0.0354499
0.0343818
0.0614544
0.0331607
0.0426388
0.0412535
0.0456743
0.0437598
0.046447
0.0468461
0.0476455
0.0371339
0.0366139
0.0363302
0.0345557
0.0357999
0.0412114
0.0347742
0.0354559
0.0356977
0.0363703
0.0857414
0.15685
0.0884577
0.147532
0.147753
0.0511641
0.038783
0.0397309
0.0378945
0.0361476
0.0370804
0.0356176
0.0673004
0.0340349
0.0409557
0.0420216
0.0451887
0.0433404
0.0464316
0.0480914
0.0477229
0.0507254
0.0379033
0.0376178
0.0376497
0.0361748
0.0360475
0.0414324
0.035504
0.0361264
0.0367111
0.0370907
0.0883003
0.158453
0.15412
0.093143
0.15721
0.0507713
0.0388934
0.0400826
0.0375246
0.0364925
0.0688142
0.0349182
0.0411787
0.0424252
0.0445454
0.0436488
0.0459791
0.0480246
0.0491898
0.051137
0.053491
0.0391801
0.0385743
0.038398
0.0372315
0.0369124
0.042461
0.0370112
0.0362537
0.0400883
0.0375824
0.0382753
0.0848942
0.166432
0.0967869
0.161535
0.16342
0.0516251
0.0392032
0.0399782
0.0378969
0.0722182
0.035353
0.0415114
0.0424203
0.0449574
0.0439933
0.0463103
0.0473383
0.0495491
0.0514384
0.0529531
0.0570317
0.0401947
0.0393394
0.0387302
0.041063
0.0372225
0.0428823
0.0374982
0.0414014
0.0391362
0.0387238
0.173589
0.0846194
0.16889
0.100557
0.173547
0.0522181
0.178178
0.039002
0.040352
0.07388
0.0361575
0.0414868
0.0426747
0.0450578
0.0440028
0.0466196
0.0476818
0.0489256
0.0514042
0.0533722
0.0562288
0.0566062
0.0607034
0.0393253
0.0407661
0.0390695
0.0422313
0.042458
0.0379197
0.0437156
0.0391343
0.0404115
0.0397641
0.0849728
0.181506
0.175594
0.0991215
0.179862
0.0529385
0.192185
0.184677
0.201925
0.165711
0.185362
0.156429
0.0883289
0.0370704
0.0403151
0.0423386
0.0432156
0.0439437
0.0454345
0.046757
0.0477076
0.0491797
0.0578432
0.0504672
0.0532129
0.0559856
0.0613238
0.0648614
0.0632742
0.0693733
0.0416365
0.0411542
0.043447
0.0438744
0.0414032
0.039233
0.0452222
0.0398999
0.0409902
0.0874912
0.194266
0.181027
0.0528666
0.291805
0.259642
0.201859
0.172462
0.195364
0.221414
0.0754762
0.0759825
0.0811417
0.159978
0.149359
0.151417
0.148046
0.159317
0.150556
0.038721
0.0452336
0.0452829
0.0459878
0.0606697
0.0470052
0.0479489
0.0493294
0.0507211
0.0577031
0.0522391
0.0552907
0.0651245
0.0617056
0.0681427
0.0678821
0.0765104
0.0808355
0.0429086
0.0436708
0.0450706
0.0450186
0.0427835
0.0421231
0.0402973
0.0449205
0.0414816
0.0915145
0.218398
0.302446
0.258241
0.177273
0.194673
0.221846
0.079514
0.0814118
0.0869646
0.0826626
0.085638
0.132774
0.139184
0.139541
0.147218
0.160072
0.240377
0.119258
0.0441241
0.0474637
0.0471607
0.0600608
0.0611583
0.0491738
0.0491162
0.0506093
0.0523905
0.05714
0.0540081
0.0657927
0.0637523
0.0692208
0.0721347
0.0768432
0.0786503
0.0456585
0.0449447
0.0423631
0.0475729
0.0465223
0.0439286
0.0434544
0.0497167
0.0429093
0.041791
0.0498497
0.0973051
0.294377
0.324317
0.260233
0.176716
0.19758
0.225335
0.0820357
0.0895074
0.0979474
0.087682
0.0919248
0.122685
0.10927
0.0871524
0.0904033
0.129305
0.137202
0.147586
0.158635
0.257658
0.211402
0.0650492
0.0491769
0.049675
0.0593154
0.0612047
0.0502859
0.0506703
0.0523627
0.0541236
0.0560351
0.0663927
0.0639626
0.0696926
0.0728347
0.074904
0.0782349
0.0475254
0.0496678
0.0476117
0.0438727
0.043934
0.0454458
0.0467594
0.0447534
0.0509279
0.0485202
0.169913
0.22205
0.0434372
0.0412712
0.304913
0.257193
0.255513
0.326934
0.265677
0.17739
0.199507
0.230036
0.0861815
0.0808368
0.0934813
0.0994576
0.0972087
0.107371
0.118065
0.0920539
0.0961632
0.127289
0.134558
0.147115
0.162411
0.318252
0.273412
0.319551
0.0649527
0.0524504
0.0511498
0.0581017
0.0604347
0.0523506
0.0522429
0.0538896
0.0560982
0.0628431
0.0655458
0.0683769
0.0715453
0.07466
0.0773511
0.0791724
0.05073
0.0507087
0.0453181
0.0450457
0.0462647
0.0476403
0.0493121
0.0529671
0.0500676
0.0451153
0.0510816
0.0557011
0.31422
0.260681
0.243283
0.192409
0.191702
0.331402
0.261553
0.17987
0.190323
0.209855
0.0906919
0.0845431
0.0826235
0.117015
0.102104
0.106039
0.0975871
0.101434
0.125649
0.133304
0.149907
0.164021
0.0870263
0.350391
0.329252
0.352844
0.0777329
0.0551254
0.0538546
0.0581752
0.0604453
0.0540303
0.0539129
0.0560533
0.0628484
0.0654781
0.0682847
0.0713624
0.0739964
0.0759228
0.0790992
0.0798322
0.0532129
0.054194
0.0469656
0.046971
0.0482613
0.0496738
0.0508926
0.0548004
0.0517955
0.0508241
0.0469148
0.0479002
0.311106
0.166955
0.230566
0.222496
0.192826
0.334703
0.262779
0.175032
0.195203
0.215467
0.241861
0.0956993
0.0839855
0.0893884
0.0840318
0.103494
0.114226
0.108682
0.12574
0.138973
0.152621
0.160453
0.0879193
0.386875
0.371446
0.405544
0.0809148
0.0590825
0.0559649
0.0604227
0.0579751
0.0560393
0.056197
0.062665
0.0653808
0.0709956
0.06797
0.0733245
0.0758573
0.0759436
0.0787374
0.0821517
0.056871
0.056096
0.0573878
0.0489199
0.04873
0.0508966
0.0524992
0.0535602
0.0530926
0.048764
0.0504324
0.316673
0.255876
0.144123
0.150031
0.205882
0.197877
0.174268
0.271596
0.331827
0.178324
0.194489
0.211276
0.236283
0.101053
0.0855576
0.0936483
0.0868776
0.0896802
0.110237
0.114315
0.106576
0.127834
0.140724
0.150769
0.164765
0.114238
0.425759
0.426231
0.439768
0.0927261
0.0628352
0.0580692
0.0606818
0.0582862
0.058018
0.0632399
0.0653627
0.0704024
0.0681896
0.0741608
0.0760721
0.0781836
0.0808138
0.0838559
0.060124
0.0598697
0.0596107
0.0555849
0.0509802
0.0510868
0.0525645
0.0534746
0.0544421
0.0507344
0.0545738
0.332287
0.280528
0.242757
0.220205
0.125446
0.133328
0.147221
0.189091
0.178081
0.162938
0.112964
0.273096
0.326601
0.331985
0.177865
0.194801
0.225571
0.211584
0.0993951
0.0881183
0.0924775
0.0893791
0.112206
0.119609
0.105151
0.165273
0.130088
0.137725
0.152394
0.113137
0.473125
0.482263
0.505314
0.0599299
0.0994962
0.0645956
0.0611476
0.060765
0.066695
0.0651655
0.0716397
0.0720622
0.0693426
0.0750062
0.0783799
0.081437
0.0646472
0.0625503
0.0620266
0.0576443
0.0568252
0.0527315
0.0522501
0.0541413
0.0559709
0.0525816
0.0562065
0.0689927
0.0741641
0.276864
0.245261
0.214982
0.196168
0.120339
0.135278
0.150085
0.170769
0.160963
0.108479
0.0999263
0.0926451
0.0825023
0.0790683
0.316712
0.265745
0.316411
0.271536
0.166291
0.179113
0.192034
0.220965
0.0985759
0.0905874
0.0934058
0.120369
0.112729
0.105503
0.102385
0.152049
0.151899
0.129711
0.141208
0.136827
0.561934
0.529988
0.526437
0.0666854
0.101137
0.063177
0.0643486
0.0721649
0.0683713
0.0746815
0.0773103
0.0802703
0.0648863
0.0643759
0.059975
0.0586213
0.0573937
0.0549059
0.0544396
0.0561992
0.0607753
0.054678
0.0761813
0.0696917
0.0729739
0.240222
0.219898
0.193322
0.175527
0.120687
0.137632
0.147274
0.15429
0.11371
0.0996839
0.102293
0.0776867
0.0909418
0.0802071
0.0844412
0.270057
0.251219
0.237679
0.216712
0.160549
0.174382
0.199627
0.149446
0.0968163
0.0934655
0.117314
0.108098
0.113227
0.106384
0.100771
0.142453
0.14388
0.130359
0.109726
0.615717
0.595876
0.585961
0.0834948
0.105994
0.0673843
0.0611334
0.071754
0.0755894
0.0788884
0.0673075
0.0623843
0.0612879
0.0601526
0.0581436
0.0566673
0.0559436
0.0586198
0.0562867
0.0741112
0.0703321
0.211557
0.215162
0.197772
0.17387
0.157331
0.127472
0.135488
0.140605
0.116536
0.110487
0.102395
0.078811
0.0817585
0.0956394
0.0849412
0.0893226
0.224162
0.214856
0.211726
0.196732
0.140615
0.162656
0.171076
0.151435
0.194424
0.0963315
0.12077
0.11463
0.111044
0.10422
0.0994697
0.123612
0.130032
0.131213
0.115763
0.730893
0.687015
0.732756
0.133457
0.0708372
0.0790748
0.0747128
0.0781522
0.0650864
0.063498
0.0619533
0.0605186
0.0588308
0.0584204
0.0597673
0.0587529
0.0741441
0.0679301
0.194005
0.195429
0.176158
0.155573
0.1426
0.125506
0.129216
0.116374
0.108725
0.101897
0.0777907
0.0812213
0.0959921
0.0856277
0.0902391
0.196333
0.189997
0.172801
0.126195
0.132678
0.142127
0.150054
0.175249
0.112162
0.107061
0.101981
0.117577
0.11505
0.122635
0.126141
0.855485
1.17251
0.321309
0.0750215
0.0880389
0.0781135
0.0665036
0.0650156
0.0628517
0.0610206
0.0603374
0.0621999
0.0711032
0.0691893
0.175154
0.173412
0.156032
0.141084
0.130885
0.119481
0.111175
0.103882
0.0975483
0.0744834
0.0782483
0.0918788
0.0823183
0.0868735
0.171672
0.173264
0.15635
0.127904
0.133963
0.140934
0.12328
0.155991
0.108651
0.104317
0.112294
0.113359
0.118378
0.198924
1.66909
1.614
0.579457
0.0801081
0.122177
0.0672455
0.0655821
0.06271
0.0633864
0.069007
0.0726282
0.0706923
0.156781
0.156541
0.14143
0.129762
0.12095
0.112623
0.105219
0.0989907
0.0758741
0.079843
0.0932561
0.0837555
0.0884257
0.154182
0.154669
0.142085
0.125249
0.129737
0.118804
0.141626
0.106208
0.10896
0.109898
0.112766
4.05697
0.331402
2.33333
2.47956
1.16876
4.49713
0.0682296
0.0658028
0.067072
0.0668071
0.0772139
0.0734344
0.0713263
0.139985
0.140841
0.130337
0.120652
0.112196
0.10549
0.0990715
0.0773421
0.0806351
0.0940963
0.08502
0.088967
0.13751
0.137775
0.13022
0.119148
0.112973
0.127974
0.130351
3.27195
3.60158
0.63595
3.5995
3.58062
4.88546
3.96703
6.43333
0.0691853
0.0659337
0.0704062
0.0706078
0.0943183
0.0744883
0.0709336
0.13114
0.130744
0.120701
0.112466
0.105464
0.0995873
0.0780783
0.0817625
0.094423
0.089892
0.0856633
0.129611
0.122246
0.113346
0.120803
0.12326
0.122457
2.21286
2.86075
3.1808
1.20755
4.51384
3.48147
6.20017
6.25898
0.0709381
0.0705044
0.0754154
0.134918
0.075358
0.07157
0.11844
0.118977
0.11166
0.104913
0.0994222
0.0779734
0.0825347
0.094641
0.0904024
0.0862713
0.122343
0.115437
0.116252
0.11843
0.116892
0.116214
1.93757
1.80985
2.4967
2.78422
3.44188
5.86316
4.10788
3.02876
5.86386
6.05941
0.0731589
0.074684
0.0803133
0.0744931
0.0754619
0.0775515
0.114041
0.106965
0.102066
0.0968116
0.0814784
0.0818164
0.0937359
0.0890155
0.086767
0.115173
0.112629
0.113614
0.1119
0.110957
1.52375
1.47778
2.1641
2.39526
6.31192
2.98045
5.59538
5.42205
3.68322
2.58978
5.49531
5.85213
0.0749058
0.0774238
0.0775025
0.0788068
0.0819799
0.109998
0.105375
0.101391
0.097038
0.0836363
0.0848375
0.0936752
0.0902976
0.0875763
0.109164
0.10728
0.105298
6.14596
1.1938
1.20122
1.84533
1.98305
5.89632
2.58168
5.25549
5.15524
4.96544
3.23835
2.13132
5.09652
5.6406
0.0772137
0.0780765
0.0802057
0.0816228
0.104231
0.10242
0.0998782
0.096754
0.0841731
0.0862862
0.0938317
0.0910669
0.0885804
6.73233
5.57205
0.934087
0.961425
1.51152
1.46825
5.43239
2.22671
5.10375
4.80242
4.70492
4.49125
2.74412
1.57435
4.65446
5.42223
7.71443
6.19448
5.00223
0.725835
0.737726
1.09831
0.599015
4.94369
1.88982
4.96102
4.68348
4.35597
4.24511
3.98884
2.11206
0.670444
4.12972
5.19129
8.42292
7.31246
5.61312
4.43889
0.549019
0.491859
0.39824
4.42946
1.55529
3.49756
4.651
4.26086
3.91304
3.76516
3.42523
1.04659
3.41833
9.77896
7.94411
6.84059
4.99992
3.87349
0.367086
0.127308
3.85915
1.36414
2.74143
3.05166
4.32785
3.83819
3.46218
3.2364
2.71296
2.17256
11.2169
8.98552
7.4879
6.29744
4.3603
3.27754
0.0832728
3.1224
1.42689
2.37764
2.62999
3.9891
3.40476
2.97488
2.57827
1.51234
11.8437
11.1961
8.06474
7.02301
5.6585
3.67905
2.56258
1.71945
1.3082
1.27815
2.05787
2.21933
3.62349
2.93467
2.37907
1.48406
12.1217
11.5256
10.9294
7.07345
6.51626
4.88727
2.88942
1.35718
1.48533
1.1987
1.14333
1.76398
1.80849
3.20553
2.35878
1.39294
8.18492
12.1273
10.939
10.3771
6.03207
5.95468
3.93766
1.65689
1.59759
1.38048
1.09209
1.01807
1.48116
1.38863
2.66761
1.41474
6.91989
8.06661
11.8613
10.0695
9.52104
5.00159
5.17878
2.56351
1.60919
1.48253
1.273
0.984485
0.895866
1.19437
0.949054
1.76083
6.28671
6.62096
7.72502
11.3893
8.97516
8.30272
4.25388
3.46476
1.51209
1.49314
1.36503
1.15979
0.870486
0.763162
0.869478
0.46876
6.30022
6.10232
6.19858
7.2214
10.6536
7.64095
6.74916
3.36296
1.33094
1.40528
1.37477
1.24212
1.03575
0.740109
0.587325
0.403845
6.84958
6.09874
5.78679
5.70366
6.61543
9.52204
6.08625
5.90015
1.42722
1.21903
1.29608
1.25105
1.10838
0.8897
0.566481
0.262904
8.07426
6.54316
5.7727
5.38197
5.15301
5.93096
7.62556
3.77098
2.64715
1.27943
1.11041
1.18128
1.11655
0.952094
0.691084
0.250273
12.0246
7.94429
6.12297
5.36226
4.90331
4.53603
5.12277
5.11917
3.54036
2.30461
1.14511
1.00098
1.05554
0.959444
0.741518
0.334361
11.7547
12.0079
7.60097
5.63297
4.88011
4.34286
3.80754
4.02975
4.95576
3.08095
1.99868
1.0201
0.885033
0.907599
0.747943
0.371154
11.0535
11.4513
11.7159
7.09814
5.08772
4.31701
3.65707
2.87751
5.13972
4.64465
2.64858
1.71435
0.897683
0.752542
0.70683
0.377038
9.81892
11.0598
10.9215
11.1494
6.48288
4.4774
3.62852
2.7649
5.23678
4.71745
4.32285
2.23228
1.4393
0.76415
0.5768
0.348476
8.41581
9.06103
10.8574
10.1767
10.3388
5.74593
3.75151
2.72845
5.56592
4.78081
4.29217
3.98426
1.81857
1.15985
0.587334
0.259322
7.7722
7.95687
8.19067
10.4134
9.25426
9.19918
4.82605
2.80312
5.85946
5.12643
4.33422
3.86728
3.61862
1.39765
0.842425
0.262802
6.7534
7.36466
7.53206
7.30685
9.77175
8.26429
7.70012
3.52054
6.652
6.26568
5.42411
4.67807
3.89321
3.43153
3.19915
0.951723
0.383043
6.13616
6.22188
6.89416
7.10632
6.42061
8.95055
7.24497
6.06923
5.08222
6.44235
5.93808
4.97185
4.22022
3.44414
2.95741
2.6553
0.456026
6.24889
5.56135
5.64273
6.3629
6.64529
5.52976
7.9284
5.78777
3.40867
4.53452
4.6857
6.22482
5.56925
4.49927
3.74149
2.95733
2.37269
1.72597
5.84668
4.99008
5.02473
5.73103
6.10756
4.80396
6.44937
2.94427
2.06755
4.31017
4.02593
4.25841
6.00315
5.16685
3.99685
3.21249
2.36039
1.40378
2.4426
3.56259
5.3951
4.42576
4.37827
4.96399
5.31213
3.56468
2.53715
1.63358
3.82434
3.54554
3.81483
5.77779
4.71725
3.43162
2.55228
1.35587
1.9865
3.1351
4.91552
3.86068
3.69461
4.01683
3.51925
2.18488
1.2841
3.37732
3.09081
3.34964
5.54625
4.18021
2.71254
1.43964
1.61974
2.7487
4.40944
3.26602
2.90287
2.63974
1.85605
1.00826
2.95758
2.64613
2.83208
5.30087
3.44636
1.48564
1.31471
2.39035
3.84458
2.5543
1.67973
1.55405
0.786073
2.54646
2.17938
2.16819
2.14582
1.05074
2.04455
3.11431
1.35912
1.36805
0.595972
2.11081
1.6058
1.04408
0.805806
1.68122
1.73085
0.399697
1.56792
0.662531
0.539165
1.23204
0.0958805
0.646643
0.148608
0.474788
0.0862871
0.084341
0.0856279
0.0856375
0.0870845
0.0868569
0.0875061
0.0875386
0.0882495
0.0827381
0.0838419
0.0842683
0.085468
0.0857857
0.086933
0.0875458
0.0918806
0.0933113
0.094649
0.0968888
0.0983334
0.0884446
0.0892436
0.0882734
0.0884322
0.0887417
0.0883793
0.0896063
0.089337
0.0903769
0.101015
0.102178
0.0814158
0.0825201
0.0831421
0.084232
0.0848572
0.0858043
0.0867987
0.0878893
0.0888483
0.0898276
0.0909299
0.0923009
0.0941001
0.0955579
0.0986376
0.100127
0.105621
0.106371
0.0902313
0.0911042
0.0921592
0.0931218
0.0944973
0.0959451
0.0983196
0.089636
0.0900937
0.0896197
0.0896328
0.0905179
0.0898748
0.0918757
0.0913559
0.0927015
0.098148
0.0999642
0.110623
0.112299
0.104857
0.104605
0.109699
0.0804108
0.0814372
0.0823017
0.083311
0.0842608
0.0852596
0.0864622
0.0873952
0.0891237
0.0902099
0.0916725
0.0929625
0.096964
0.0983732
0.101489
0.102631
0.107156
0.108419
0.113564
0.115712
0.122072
0.12221
0.129183
0.0910776
0.091802
0.0927626
0.0937808
0.0952508
0.0908134
0.0910862
0.0911649
0.090853
0.0924218
0.0916467
0.09512
0.0940639
0.0933456
0.095663
0.0993147
0.0995476
0.104583
0.106206
0.125816
0.113808
0.121478
0.110573
0.113481
0.0800099
0.0809396
0.0820822
0.0830794
0.0843414
0.0852566
0.0867403
0.0876531
0.0892615
0.0902246
0.0924654
0.0945956
0.102693
0.0998859
0.10614
0.108639
0.113112
0.114601
0.119482
0.129215
0.134878
0.135725
0.149455
0.152085
0.1458
0.154338
0.154898
0.196086
0.0920557
0.0928142
0.0936348
0.094588
0.097469
0.096225
0.0920966
0.0921331
0.0927791
0.0923017
0.0952382
0.0942257
0.0934812
0.0996736
0.0983496
0.0959511
0.0983958
0.100293
0.248696
0.214787
0.307533
0.104696
0.105006
0.110542
0.112786
0.127417
0.129519
0.165426
0.144658
0.121935
0.12799
0.0807289
0.0813169
0.0829347
0.0835499
0.0853378
0.0858856
0.0878801
0.0886631
0.0918039
0.0910608
0.0953431
0.096751
0.1016
0.103941
0.113452
0.111651
0.120885
0.129715
0.136691
0.137468
0.14931
0.714068
0.702111
0.493633
0.162294
0.171116
0.186398
0.192702
0.202544
0.217847
0.218432
0.491188
0.292864
6.43653
7.00294
6.85403
6.54033
7.16304
7.18501
6.95611
6.58291
0.093196
0.0935576
0.0945591
0.0954939
0.0971854
0.0961145
0.0934789
0.0932971
0.0952796
0.0944605
0.0939421
0.1019
0.100516
0.0992003
0.0980618
0.0967061
0.0996351
0.105652
0.101572
0.104955
6.03545
5.06793
1.86187
1.31908
0.772538
0.174908
0.249618
0.305604
0.564671
0.112823
0.113155
0.114162
0.113701
0.125808
0.127904
0.139766
0.136124
0.164147
6.22887
6.9198
4.5436
7.14358
7.20525
7.18987
5.44521
6.07887
6.16755
7.17393
0.0869493
0.0845301
0.0886636
0.0873098
0.0910468
0.0900358
0.0936413
0.0934768
0.09662
0.0964101
0.100479
0.100432
0.108268
0.111102
0.116759
0.115757
0.121456
0.146907
0.124649
0.159765
0.211175
0.203535
0.247653
0.248811
0.243997
1.27988
1.78616
3.41976
2.48487
1.29574
0.996519
0.356809
0.394899
0.499043
0.505228
1.02151
0.596151
0.580058
3.8865
6.05844
4.9664
5.26914
6.158
6.68953
6.92221
6.91534
4.97669
4.92456
7.12813
7.08212
5.57532
5.79475
6.38243
7.01925
6.59957
6.96439
0.0944608
0.0946744
0.0955555
0.0968524
0.0972286
0.0962144
0.0957139
0.0950039
0.0946379
0.103986
0.102515
0.101115
0.0999382
0.0988843
0.0978917
0.0975099
0.100509
0.100885
0.104791
0.10529
0.109751
0.104598
2.6829
4.52667
3.52972
5.9134
4.61538
1.67602
2.70557
1.43451
0.752907
0.113262
0.609531
0.200068
0.348346
0.25604
0.123522
0.120274
0.129017
0.124318
0.132235
0.130976
0.149139
0.143272
0.200314
6.24603
7.08732
5.94622
4.28939
4.70183
3.6526
7.32306
7.42697
7.24681
5.99587
4.528
5.61488
0.188885
0.103206
2.11
0.646731
0.135769
0.105391
0.124286
0.1052
0.119347
0.104621
0.117831
0.112388
0.109827
0.121429
0.120468
0.14303
0.176032
0.165026
0.201382
0.283346
0.252553
0.33669
0.66181
0.377545
0.407582
0.903251
1.02979
0.552183
0.48585
0.655996
0.633731
0.798867
0.799682
1.92836
2.54657
3.68253
2.97791
2.08547
1.5157
1.16546
1.16974
1.75764
1.31111
1.42966
4.9382
4.32164
5.15442
6.16912
5.86747
6.84925
6.64537
7.10473
7.01109
7.0536
5.22035
5.77706
6.98917
7.00327
6.84491
6.81343
6.51178
0.0976858
0.0956965
0.095757
0.0966027
0.0971998
0.0964497
0.0961672
0.0983386
0.106113
0.104606
0.103011
0.101721
0.100582
0.0994377
0.0988004
0.0978642
0.108095
0.10574
0.107976
0.110326
0.108803
0.110229
0.101442
0.101332
0.10178
0.103433
0.114137
0.108387
0.109766
0.105493
4.62878
4.09836
3.03523
0.983714
2.53479
1.741
0.119422
0.13361
0.131935
1.09818
0.262733
0.561104
0.364801
0.144732
0.139969
0.152594
0.148585
0.175952
0.165116
0.27687
4.41564
6.61345
7.22237
6.23291
5.30781
7.45525
3.35737
3.9057
2.72637
7.66195
7.44944
6.66637
5.5019
4.00016
4.74029
4.74058
1.19316
0.340592
4.56659
3.58422
0.686562
0.33502
0.521641
0.254485
0.401564
0.216283
0.342374
0.182605
0.247602
0.44612
0.780333
0.554907
0.962952
0.620972
0.758383
1.34634
1.67205
1.83009
1.18538
1.19748
1.86096
2.09387
1.24468
1.37542
1.6731
1.58411
1.95985
1.67452
3.949
2.76616
3.31105
3.14314
2.6837
2.53682
2.90879
2.19018
2.70134
5.38838
4.52426
6.74362
6.05923
6.36816
7.07446
6.97232
6.92142
7.00095
6.52585
6.61364
0.10997
0.108458
0.0970661
0.0982448
0.0975379
0.0969996
0.0970137
0.0985761
0.0996994
0.104782
0.102922
0.102217
0.10075
0.100236
0.0991504
0.0988471
0.0980958
0.106734
0.104837
0.105984
0.107102
0.105414
0.106762
0.101112
0.101727
0.102995
0.105688
0.120586
0.113583
0.114435
0.108855
1.79895
2.65218
3.52787
0.129606
0.142699
0.141338
0.163799
0.159052
0.784203
1.83924
0.360422
0.709531
0.198915
0.18288
0.274084
0.236115
0.369603
3.59594
5.12882
4.76291
6.87865
6.9852
7.36297
7.79352
7.72027
2.6554
3.60344
7.40906
6.47194
5.72704
4.05206
4.76351
4.77074
2.08616
4.79464
5.11647
5.63868
3.79047
2.39508
5.78656
6.27726
3.38035
1.73732
2.62095
1.23126
2.01868
1.0231
1.35999
1.58025
1.20689
2.18787
1.79523
1.73116
1.70392
1.82588
2.77662
2.87108
2.99924
3.31612
2.53556
2.37401
3.40267
3.5911
2.57474
2.82588
3.30476
3.11568
3.49695
4.7072
4.18907
4.54808
3.71771
4.26368
4.23167
3.99014
4.4108
6.37097
5.70618
6.97023
6.81776
6.91168
6.92595
6.35242
6.45664
0.111828
0.109318
0.107507
0.106011
0.0985783
0.0984298
0.0987403
0.0995359
0.100675
0.103867
0.102439
0.101764
0.100651
0.100239
0.0994196
0.099465
0.103702
0.104573
0.103088
0.104272
0.103446
0.104478
0.102071
0.102169
0.103996
0.109866
0.105721
0.102605
0.130524
0.121558
0.122605
0.115455
0.138662
3.15774
2.29766
0.155005
0.15164
0.185007
0.179607
0.263874
0.312914
0.249666
0.791109
2.07712
0.95649
0.499011
0.416896
0.8633
5.07844
4.23292
7.38357
6.75912
7.96393
7.84993
7.5663
7.28935
6.88392
6.53827
0.210385
0.70529
4.68032
5.55248
1.28228
3.89436
5.77817
5.47021
6.30833
6.05837
5.52906
6.20885
5.92867
5.31241
5.3736
3.55659
4.28999
3.29635
2.92016
2.89789
4.23723
3.34032
4.18595
3.51531
3.69382
4.2897
4.65836
4.60115
4.71093
4.25145
4.11758
3.76098
4.91988
5.09264
4.25961
4.44557
5.11537
5.01062
5.81488
6.07975
5.63458
5.50595
5.80976
5.48539
5.69679
6.82092
6.7011
6.68368
6.72464
6.07301
6.17634
0.0882882
0.109269
0.112428
0.111046
0.109207
0.106993
0.105569
0.104043
0.0996432
0.0998265
0.100167
0.100278
0.102636
0.102369
0.101657
0.10091
0.10042
0.10006
0.101263
0.102194
0.101461
0.102485
0.102115
0.103026
0.102249
0.106258
0.107072
0.116233
0.105179
0.106738
0.142624
0.126398
0.130146
0.117126
0.159566
0.186299
0.168622
4.47237
2.7944
0.249475
0.210397
0.490271
0.408299
1.21263
1.04661
0.884256
2.32899
3.05949
1.65877
7.3422
6.22757
8.0963
8.21256
7.95828
7.56396
7.10547
6.74722
0.147871
0.452939
4.10855
6.35631
0.844001
2.38467
6.33679
6.15563
5.94292
6.5458
6.07205
5.58298
6.94264
6.23704
6.87157
6.45786
6.04477
6.03679
5.64048
4.70216
4.75374
5.93695
5.41727
5.16852
5.39486
5.61142
5.49979
5.75669
5.68206
5.63645
5.58251
5.88754
5.13209
5.4144
5.92317
5.911
5.63862
5.73425
6.0362
6.07623
6.2937
6.22844
6.63625
6.40251
6.38117
6.46188
6.51009
5.76744
5.92039
0.0812931
0.0851301
0.0894788
0.108448
0.111028
0.110167
0.108877
0.108317
0.106996
0.105156
0.102738
0.104171
0.107606
0.108723
0.101443
0.100388
0.0997187
0.0998978
0.100681
0.0999316
0.0998272
0.100272
0.100895
0.100628
0.101575
0.101465
0.102139
0.103063
0.105515
0.108965
0.114473
0.117242
0.11072
0.139012
0.163173
0.125763
0.142414
0.177436
0.231252
0.200579
0.250424
0.389812
0.28505
6.40952
5.352
1.11823
0.817768
2.52763
1.97252
4.38628
5.80132
3.95142
8.41252
8.36427
8.50065
8.02528
7.7059
7.1952
0.132844
0.319994
3.273
6.21654
0.558912
1.58584
6.09935
6.91308
5.33419
5.50442
6.67887
5.91888
6.84436
6.61172
5.25089
5.76548
6.50703
6.3856
6.50636
6.22898
6.43509
5.79581
5.99361
6.12446
6.12131
5.87722
5.92091
5.766
5.79628
5.75984
5.65393
5.70016
5.57793
5.42405
5.41728
5.94676
5.93586
5.96741
5.85146
6.00724
5.95815
5.98508
5.86742
5.99548
6.23285
6.29572
6.00685
5.58535
5.75083
0.0798497
0.0815243
0.083619
0.0882516
0.0916141
0.107597
0.107288
0.106747
0.105892
0.105941
0.101945
0.103819
0.103084
0.104861
0.105327
0.105129
0.104387
0.105593
0.103394
0.103374
0.101401
0.101474
0.103485
0.100557
0.100018
0.100393
0.100161
0.101775
0.10029
0.100535
0.100847
0.101112
0.101415
0.101963
0.102342
0.105705
0.11142
0.107671
0.115466
0.124534
0.122112
0.130361
0.15845
0.182869
0.142515
0.161846
0.212017
0.277221
0.678772
0.612862
0.484167
0.914377
1.83714
1.79528
8.61233
7.78358
4.25697
4.42636
6.7504
7.91806
6.74841
9.18982
8.70924
8.47297
8.03774
0.125485
0.244978
2.4801
5.11474
0.38604
1.08096
5.20518
7.04078
5.64779
5.15753
6.79148
6.34771
5.66378
5.30659
4.96197
4.94025
6.01054
6.1261
5.20832
5.65345
5.40164
5.8388
5.7596
5.79509
5.78927
5.42198
5.45117
5.01492
5.00213
4.89226
5.17031
4.77358
4.62997
4.06493
3.69975
4.36682
4.45223
5.39129
5.81389
5.81707
5.30365
5.40253
5.45382
5.40807
5.0429
5.47748
0.105006
0.0799022
0.0806995
0.0819044
0.0839135
0.086303
0.0905912
0.0941517
0.080947
0.0809733
0.0825055
0.0822594
0.0844167
0.0837403
0.0994837
0.0998616
0.0976156
0.0980872
0.095614
0.0962185
0.0934579
0.0942584
0.0866417
0.0856734
0.0889931
0.0876984
0.0912493
0.0921053
0.089899
0.104495
0.103983
0.103446
0.103806
0.102818
0.102497
0.103224
0.102315
0.102511
0.101934
0.103083
0.100439
0.100736
0.0985459
0.0988951
0.102414
0.100984
0.102219
0.100842
0.101599
0.101809
0.101608
0.101805
0.102009
0.102693
0.103011
0.103094
0.102794
0.103464
0.109274
0.105129
0.118748
0.112473
0.123778
0.137572
0.132775
0.148779
0.186611
0.234815
0.168132
0.200752
0.292361
0.6361
3.16314
2.39702
3.24144
1.46978
3.15671
5.22859
6.03365
9.54368
9.42262
8.36585
9.49291
8.55126
9.65626
8.84426
0.118743
0.195641
4.60843
1.71755
2.76451
0.285279
0.752148
6.18864
6.87959
5.79493
5.20486
6.58357
6.13333
6.62735
4.77332
4.68343
4.68909
5.2787
5.1885
4.42679
4.66457
4.68009
4.42985
4.85239
4.99542
4.53555
4.47194
4.07648
4.01894
3.53991
3.60967
3.83261
2.86462
2.87773
2.57356
2.58392
3.31456
4.85868
4.73331
3.61428
4.18013
4.02315
0.105163
0.0928697
0.0964376
0.0817877
0.082702
0.0843172
0.0865885
0.0892286
0.0826022
0.0829243
0.0837874
0.0838496
0.085258
0.0851775
0.0966905
0.0972923
0.0948326
0.0956538
0.0928284
0.0938451
0.090728
0.0920258
0.087042
0.0866923
0.0887904
0.090121
0.0883484
0.102436
0.101959
0.101719
0.102487
0.102299
0.100005
0.100502
0.100096
0.101149
0.0982451
0.0987095
0.0964143
0.0969364
0.102126
0.102778
0.102457
0.104147
0.103577
0.103976
0.104325
0.103831
0.104636
0.105737
0.104367
0.104614
0.104146
0.112437
0.107891
0.108355
0.126986
0.11731
0.133942
0.156637
0.151219
0.177421
0.208727
0.422691
0.204744
0.275231
0.616983
1.99493
6.19005
6.9299
6.09898
7.35837
3.97858
6.84345
8.51009
9.46743
10.4536
10.162
10.2587
0.11629
0.146051
0.201005
2.92352
4.90782
1.11627
2.17687
0.444539
5.46926
6.40806
5.35439
4.77198
5.88376
5.5022
6.33787
6.47741
6.05876
5.81067
4.21269
4.36551
4.39351
4.28836
3.94385
4.01386
3.92853
3.81747
3.96304
3.98705
3.628
3.60153
3.11164
3.19181
2.53074
2.6475
2.09508
2.1465
1.90802
1.82303
3.29265
1.8376
2.80837
4.9408
0.0960216
0.101869
0.0893536
0.0931036
0.0839005
0.0852509
0.0871822
0.0845428
0.0849128
0.0854581
0.0855417
0.0866575
0.0866525
0.094754
0.0953831
0.0931135
0.0938996
0.0913908
0.092277
0.0897606
0.090807
0.0882036
0.0892997
0.0879209
0.10093
0.100875
0.100874
0.100672
0.0982254
0.0990549
0.0987759
0.100148
0.0965681
0.0972837
0.0949501
0.095669
0.102736
0.102124
0.104913
0.10395
0.109269
0.107568
0.110357
0.109458
0.106665
0.107694
0.110616
0.108395
0.106325
0.112139
0.107601
0.107718
0.121176
0.120576
0.139333
0.137168
0.174901
0.171448
0.232878
0.197722
0.317459
0.729112
0.261539
0.39997
1.7323
4.22694
6.44646
9.54107
9.62358
9.5273
9.79336
10.7361
10.7012
10.9971
0.709892
0.106088
0.110202
0.13805
0.181555
0.331872
3.99345
1.61559
2.42633
5.61021
4.40927
4.37391
4.83355
5.62515
6.04339
4.8246
5.30261
6.14286
6.08736
5.61312
5.18769
3.78879
3.97597
3.62145
3.63965
3.52904
3.54848
3.41329
2.95371
3.22994
3.19768
2.44872
2.63801
1.98456
2.15578
1.63662
1.75711
1.49822
1.47358
0.0939294
0.0973895
0.086467
0.0881748
0.0909472
0.0863
0.0877665
0.0870143
0.0874331
0.0878722
0.0879423
0.0933339
0.0942506
0.0916772
0.0929245
0.0903374
0.0914922
0.0890376
0.0902305
0.0890408
0.101334
0.0999625
0.100115
0.100505
0.0973036
0.0981382
0.099836
0.098254
0.0957118
0.0966616
0.0943774
0.0951852
0.105274
0.104021
0.104051
0.107983
0.106117
0.114916
0.114246
0.113483
0.115825
0.1224
0.119655
0.120117
0.117312
0.116224
0.112349
0.110094
0.120127
0.116739
0.123323
0.146985
0.136965
0.21656
0.217089
0.170407
0.202973
0.311464
0.314256
1.00392
2.03196
0.895783
3.80692
5.77428
7.6647
10.3476
11.7326
11.5419
11.4743
1.49592
2.00913
0.100014
0.539311
1.02721
0.107988
0.112361
0.119948
0.153847
0.195468
0.316232
3.90094
3.15442
5.57887
5.13467
3.91077
4.27553
5.87286
5.97449
4.28933
4.80374
5.75766
5.58944
4.9394
3.37366
3.55621
2.95523
3.10188
3.11386
2.96441
2.52392
2.658
2.09079
2.27474
1.75614
1.89736
1.43176
1.60795
0.0965823
0.0890837
0.0922296
0.0943532
0.0946861
0.0884549
0.0900445
0.088678
0.0895387
0.0893461
0.0896049
0.0927243
0.0938908
0.0916054
0.0925774
0.0904045
0.0914576
0.0903343
0.0943906
0.100274
0.100001
0.101445
0.0992532
0.0981083
0.0970249
0.101701
0.0971242
0.0962067
0.096125
0.105108
0.103395
0.10693
0.109555
0.109696
0.114794
0.113558
0.123162
0.125324
0.128355
0.127277
0.140585