/*--------------------------------*- C++ -*----------------------------------*\
  =========                 |
  \\      /  F ield         | OpenFOAM: The Open Source CFD Toolbox
   \\    /   O peration     | Website:  https://openfoam.org
    \\  /    A nd           | Version:  8
     \\/     M anipulation  |
\*---------------------------------------------------------------------------*/
FoamFile
{
    version     2.0;
    format      ascii;
    class       volVectorField;
    location    "14000";
    object      U;
}
// * * * * * * * * * * * * * * * * * * * * * * * * * * * * * * * * * * * * * //

dimensions      [0 1 -1 0 0 0 0];

internalField   nonuniform List<vector> 
4109
(
(10.1197 0.000522711 0)
(10.1223 0.000552568 3.86635e-21)
(10.124 0.0025045 0)
(10.1218 -0.00021677 -8.33083e-21)
(10.1241 0.00150618 4.00717e-22)
(10.1269 0.00237168 6.67277e-23)
(10.1278 0.00251369 -2.4606e-22)
(10.1334 0.00401669 0)
(10.1288 0.00239022 0)
(10.123 0.000387803 -2.86591e-21)
(10.125 0.00129227 3.48414e-21)
(10.1338 0.00314503 1.53497e-21)
(10.1363 0.00797796 2.24788e-21)
(10.1368 0.00429663 -1.09029e-22)
(10.1346 0.00331288 2.37358e-21)
(10.13 0.00222339 -8.93492e-22)
(10.1243 0.000617791 5.50941e-22)
(10.1267 0.00160391 6.44632e-23)
(10.1356 0.00323623 0)
(10.1404 0.00369824 -3.23162e-21)
(10.159 0.00816448 1.8488e-21)
(10.1427 0.00842469 -5.07555e-21)
(10.1466 0.00601273 -5.72904e-22)
(10.1312 0.0022931 -2.23691e-21)
(10.1285 0.00175628 9.11787e-21)
(10.1256 0.000843583 3.08485e-21)
(10.1329 -0.00211944 0)
(10.1362 -0.0022816 9.07149e-22)
(10.1404 -0.00217148 -6.58195e-23)
(10.136 0.00325996 0)
(10.1419 0.00323766 0)
(10.1465 0.00464724 3.91961e-21)
(10.2209 -2.1868e-05 -1.01531e-21)
(10.1507 0.00705205 -7.10669e-21)
(10.1489 0.00602114 0)
(10.132 0.00233947 -1.60421e-22)
(10.1279 0.00153829 -9.05775e-21)
(10.1266 0.000754432 -5.02453e-21)
(10.1328 -0.00216766 -1.45038e-21)
(10.1249 -0.00161557 0)
(10.1421 -0.00303773 -1.37655e-22)
(10.1392 -0.00333369 4.96623e-22)
(10.1418 -0.0089318 -1.48061e-22)
(10.1365 0.00334349 -2.265e-21)
(10.1421 0.0032376 0)
(9.48072 0.0260894 7.08066e-22)
(10.135 -0.000372163 3.81138e-22)
(10.1489 0.00466761 -1.40858e-22)
(10.1496 0.00403252 6.76624e-22)
(10.2167 -0.00105474 4.62957e-21)
(10.1535 0.00534019 4.26089e-21)
(10.1308 0.00203018 -1.32245e-22)
(10.1291 0.00184978 -8.7929e-21)
(10.1281 0.00102587 1.97803e-21)
(10.1329 -0.00250145 -9.4769e-22)
(10.1266 -0.00186347 0)
(10.119 -0.000356071 0)
(10.1416 -0.00527545 1.16956e-22)
(10.143 -0.00417281 1.5792e-22)
(10.1389 -0.00347591 0)
(10.2401 -0.00276686 -1.44654e-22)
(8.88598 0.0142785 0)
(10.1362 0.00330481 -7.73323e-21)
(10.1427 0.00323992 0)
(10.1487 0.00439755 6.05554e-22)
(10.2461 -0.00086296 -3.86817e-22)
(9.74634 0.0280894 1.58277e-20)
(10.15 0.00375522 0)
(10.1508 0.00631867 -9.57343e-22)
(10.2301 -0.000417517 -5.83958e-22)
(10.1298 0.00127569 2.64805e-21)
(10.1309 0.0022666 5.86698e-21)
(10.1355 0.00387925 0)
(10.1318 0.00141119 1.19563e-20)
(10.1331 0.00226674 -1.78446e-20)
(10.1339 -0.00284576 9.55817e-22)
(10.1284 -0.00195321 0)
(10.1266 -0.00176281 0)
(10.1205 -0.000465276 0)
(10.2207 0.00675859 1.69736e-22)
(10.1468 -0.00464647 8.1219e-22)
(10.1416 -0.0048624 -7.4177e-22)
(10.1451 -0.00360852 8.87287e-23)
(10.1395 -0.00389661 0)
(10.3543 0.0186106 1.20933e-21)
(10.258 3.79774e-06 0)
(9.37365 -0.0429398 0)
(9.21595 0.0310552 -3.08726e-20)
(8.84226 0.0202381 -1.05313e-21)
(10.1348 0.00273324 3.02109e-21)
(10.1371 0.003291 7.73637e-21)
(10.1432 0.00333669 0)
(10.1492 0.0044966 -3.17562e-22)
(10.1506 0.00351017 -1.97844e-22)
(10.2875 -0.00495967 0)
(9.99269 0.0122719 0)
(10.1483 0.00594447 0)
(10.2206 0.000546831 3.09531e-22)
(10.1371 0.00394388 6.29415e-22)
(10.1342 0.00322054 -1.179e-20)
(10.1318 0.00248839 1.34269e-20)
(10.1365 0.00384099 8.47007e-21)
(10.1383 0.00452173 5.39567e-21)
(10.1346 0.00274022 6.28223e-21)
(10.1341 0.0012286 2.45325e-21)
(10.1347 -0.00333001 3.99678e-22)
(10.1305 -0.0026354 3.53683e-22)
(10.1263 -0.00154142 0)
(10.1212 -0.000621817 2.85564e-21)
(10.2091 0.00182133 1.57338e-22)
(10.3295 0.00916112 0)
(10.1451 -0.0053719 -3.22559e-22)
(10.1455 -0.00428748 -3.18908e-23)
(10.1454 -0.00403141 0)
(10.1399 -0.00420789 0)
(9.01875 -0.0380273 -1.43721e-20)
(10.1706 -0.0132141 -1.07915e-21)
(9.90987 -0.0362113 1.72627e-20)
(9.5675 0.0395091 -7.21494e-21)
(9.04842 0.0114369 1.10082e-20)
(8.75677 -0.00320245 8.62494e-21)
(10.2989 0.00205879 1.37776e-22)
(10.1362 0.00330878 -1.38068e-20)
(10.1394 0.00390999 -2.38872e-21)
(10.1441 0.00368192 -7.63733e-22)
(10.1495 0.00479065 0)
(10.1514 0.00386902 6.31112e-22)
(10.1472 0.00611194 -2.01404e-21)
(10.0767 0.00439709 3.38724e-21)
(10.3091 -0.00162338 0)
(10.2078 0.00090944 2.3551e-22)
(10.1403 0.00521589 6.98286e-21)
(10.1373 0.00405895 -4.38586e-21)
(10.1387 0.00472614 -8.2846e-21)
(10.1409 0.00582634 5.13146e-22)
(10.1372 0.00155831 0)
(10.1375 0.00379613 -4.98094e-21)
(10.1355 -0.00386372 -7.8172e-22)
(10.1307 -0.00281494 0)
(10.1268 -0.00171301 1.07643e-21)
(10.1225 -0.000758041 -2.8553e-21)
(10.2107 -0.00126701 -2.45821e-23)
(10.3261 -0.00306414 0)
(10.1429 -0.00663489 0)
(10.1466 -0.00444002 -3.04356e-22)
(10.1457 -0.00420863 1.51982e-22)
(10.1404 -0.00469758 0)
(9.13903 -0.0346395 -8.23402e-21)
(9.85909 -0.0391258 5.30531e-22)
(9.08636 0.00957638 0)
(9.64724 0.0186154 -3.79709e-21)
(8.7604 0.0225223 0)
(10.2684 -0.00130501 -1.28644e-22)
(10.1399 0.00437834 1.10074e-20)
(10.1395 0.00391184 2.38854e-21)
(10.145 0.00417889 7.26155e-22)
(10.1502 0.00561965 2.35065e-21)
(10.1514 0.00440403 1.10431e-21)
(10.1467 0.00696202 1.23339e-21)
(10.2021 0.00307858 -3.89328e-23)
(10.1213 0.00211317 -3.4354e-24)
(10.3213 -0.00265861 -2.35335e-22)
(10.1441 0.00619256 1.96053e-21)
(10.1401 0.00451715 0)
(10.1416 0.00626792 -3.18599e-22)
(10.1449 0.00725678 -1.69164e-21)
(10.1426 0.00639833 -2.10565e-22)
(10.141 0.00538482 0)
(10.1408 0.00177886 0)
(10.1365 -0.00457262 2.9973e-22)
(10.132 -0.00341559 1.16591e-22)
(10.1281 -0.00208736 -2.32306e-21)
(10.1232 -0.000647464 -4.8088e-22)
(10.2068 -0.00458614 -2.07613e-23)
(10.3266 -0.00414179 0)
(10.1409 -0.00767855 6.23483e-22)
(10.1484 -0.00455678 -1.49066e-22)
(10.1457 -0.00489226 -6.04533e-22)
(10.1414 -0.00561431 -3.68916e-22)
(9.7744 -0.0296486 -5.53755e-22)
(8.88281 -0.0128511 0)
(9.70548 0.0164596 3.92193e-24)
(9.09608 0.00600074 4.71452e-22)
(8.76179 0.0207007 1.07027e-22)
(10.286 0.0032455 1.78231e-22)
(10.1456 0.00443471 -2.52989e-23)
(10.1462 0.0048535 2.52906e-23)
(10.1519 0.00621324 -1.21936e-21)
(10.1479 0.00757788 -1.98646e-21)
(10.1549 0.00409772 -8.79623e-22)
(10.1906 0.00623088 1.05905e-21)
(10.1074 0.00497585 -2.26954e-22)
(10.3172 0.000767619 1.36368e-22)
(10.1469 0.00535479 -9.45382e-22)
(10.1476 0.00636075 4.95439e-22)
(10.146 0.00828863 -4.9628e-22)
(10.1487 0.00754588 -6.81248e-22)
(10.1477 0.00931911 4.92313e-22)
(10.146 0.00770135 2.46546e-22)
(10.1421 0.00501417 1.86149e-21)
(10.1449 0.000841327 0)
(10.1378 -0.00529426 -6.38766e-22)
(10.1332 -0.0038827 3.09591e-22)
(10.1295 -0.00251078 1.99213e-21)
(10.1248 -0.000892583 3.76475e-22)
(10.1929 -0.00629139 -3.49948e-22)
(10.3171 -0.00338722 -5.89619e-22)
(10.1398 -0.00786663 3.99834e-22)
(10.1495 -0.00534207 2.64441e-23)
(10.1463 -0.0065019 8.82698e-22)
(10.1428 -0.00686706 0)
(9.76132 -0.0191688 -1.31363e-21)
(8.86914 -0.00639252 6.3495e-22)
(9.0755 -0.0015738 0)
(9.68092 0.0117738 5.65067e-23)
(8.75444 0.0197011 -7.3847e-22)
(10.313 0.0116546 1.98246e-22)
(10.1528 0.00531951 0)
(10.1531 0.00566188 -9.28112e-22)
(10.1565 0.00419778 -3.03705e-21)
(10.1737 0.0130422 2.20899e-21)
(10.1067 0.0038759 1.35741e-24)
(10.3164 0.00248359 -4.72319e-22)
(10.1533 0.00703918 1.10885e-21)
(10.1536 0.00847228 2.06792e-21)
(10.1501 0.00887637 2.03851e-21)
(10.1543 0.0101951 -1.4125e-21)
(10.1519 0.0101458 -1.0377e-21)
(10.1498 0.0104186 0)
(10.1473 0.00743648 -2.09486e-21)
(10.146 0.00574321 -2.13887e-21)
(10.1493 0.000841531 0)
(10.1392 -0.00591998 -2.92871e-21)
(10.1346 -0.00422857 7.66908e-21)
(10.1312 -0.0028781 3.4067e-21)
(10.1263 -0.000971543 -6.42389e-22)
(10.1769 -0.00777158 -2.66204e-22)
(10.3019 -0.00405773 1.57505e-22)
(10.1509 -0.00736838 -7.08438e-22)
(10.1405 -0.00801029 9.95139e-22)
(10.1407 -0.00630713 0)
(10.1483 -0.0088862 0)
(10.1446 -0.00788387 0)
(9.82313 -0.0166468 2.90278e-22)
(8.87943 -0.00898772 4.84307e-22)
(9.68282 0.00518888 5.28917e-23)
(9.07973 -0.00895978 6.59682e-23)
(8.7607 0.021231 -6.4644e-23)
(10.3286 0.0174056 -4.88596e-22)
(10.1584 0.00307126 0)
(10.1566 0.00472571 4.8947e-22)
(10.1652 0.0164945 7.42205e-22)
(10.1062 0.00380795 -1.11408e-21)
(10.3181 0.00804488 5.77713e-22)
(10.1571 0.00684431 -3.36152e-22)
(10.1584 0.00752555 -2.72119e-22)
(10.1553 0.0119658 -3.93915e-22)
(10.1597 0.0100891 0)
(10.1567 0.0139833 0)
(10.1542 0.0113773 -3.20059e-22)
(10.1523 0.011358 2.7073e-21)
(10.1505 0.00816192 -1.11813e-20)
(10.1503 0.00585904 0)
(10.1538 0.00096034 0)
(10.1372 -0.00502815 4.12993e-21)
(10.1344 -0.00404967 -5.60531e-21)
(10.1283 -0.00110945 2.38762e-21)
(10.1395 -0.00566504 4.13266e-21)
(10.1526 -0.0104398 1.86544e-21)
(10.279 -0.00504233 -3.29876e-21)
(10.1513 -0.00929548 -9.92641e-23)
(10.1429 -0.00689407 0)
(10.1464 -0.0085388 0)
(10.1508 -0.0100383 -5.79333e-22)
(8.88509 -0.00589 2.94119e-22)
(9.8605 -0.014249 5.13804e-22)
(9.08962 -0.0249315 8.0852e-22)
(9.68726 -0.00847254 -7.79855e-22)
(8.76627 0.0185041 0)
(10.3381 0.0272509 1.04911e-21)
(10.0158 -0.0174739 1.28536e-19)
(10.1675 0.0158503 0)
(10.1636 0.00995797 -2.33333e-22)
(10.1129 0.00559563 -1.4982e-20)
(10.3296 0.00657087 -4.25943e-21)
(10.1529 0.012996 1.46684e-21)
(10.1558 0.0114481 -4.54156e-22)
(10.1611 0.012041 2.86291e-21)
(10.154 0.0166646 4.5021e-22)
(10.1632 0.0144973 -8.2559e-23)
(10.1585 0.0158269 -1.11061e-22)
(10.1568 0.0125625 0)
(10.1552 0.0122718 -6.05831e-21)
(10.1543 0.00894604 2.26075e-20)
(10.1549 0.00632976 0)
(10.1556 0.00431448 6.9991e-21)
(10.1571 -0.000646588 0)
(10.129 -0.000612941 0)
(10.1351 -0.00351623 2.41834e-21)
(10.132 -0.00246549 -3.68273e-21)
(10.1405 -0.00555215 2.0751e-22)
(10.1444 -0.00710554 1.60845e-21)
(10.1387 -0.0145188 0)
(10.2596 -0.00887749 1.42682e-21)
(10.1558 -0.0112565 1.26115e-21)
(10.148 -0.00901039 6.0543e-22)
(10.1532 -0.0103952 0)
(9.8888 -0.00619875 1.21791e-21)
(8.8676 -0.00014227 -6.96586e-22)
(9.10582 -0.0298177 4.08583e-20)
(9.74103 -0.0150086 -2.82155e-20)
(8.78121 0.0160058 3.20694e-20)
(10.3336 0.0299785 -1.04317e-21)
(10.0116 -0.00270879 -2.12864e-19)
(10.0142 -0.0198725 5.55622e-20)
(10.0108 -0.0138408 -6.24681e-20)
(10.022 -0.0211792 -8.27613e-20)
(10.0172 -0.00651307 1.88728e-19)
(10.028 -0.0266655 7.33516e-20)
(9.97291 0.0171391 2.7761e-20)
(10.3405 -0.015275 1.95167e-20)
(10.2798 -0.0294903 -1.84685e-20)
(10.1917 -0.000132802 -1.49581e-21)
(10.2033 0.00179259 -5.97281e-21)
(10.1579 0.0114158 -2.86875e-22)
(10.1574 0.0177851 0)
(10.1616 0.0209158 -1.67197e-21)
(10.1652 0.0160226 0)
(10.161 0.0176581 0)
(10.1612 0.00788465 4.36626e-20)
(10.1599 0.0137818 1.10262e-21)
(10.1587 0.0130584 1.88844e-20)
(10.1589 0.00966216 -1.90264e-20)
(10.1589 0.00369273 -6.77183e-21)
(10.1583 -0.00140971 0)
(10.1603 0.000790187 0)
(10.1565 -0.00255308 1.26099e-20)
(10.1319 -0.0016814 -5.39617e-22)
(10.1355 -0.00320576 -7.57587e-21)
(10.1426 -0.00594689 -4.84148e-21)
(10.1462 -0.00745022 -5.20848e-21)
(10.1497 -0.00935171 -7.58223e-22)
(10.1389 -0.0198009 0)
(10.2597 -0.0109617 -2.95146e-21)
(10.1589 -0.0122234 -1.13334e-21)
(10.1552 -0.0102457 -1.65744e-23)
(9.89175 0.000597411 7.65492e-21)
(8.76562 0.00648114 5.74547e-22)
(8.97732 0.0202294 2.60203e-20)
(10.3268 0.011334 9.37693e-22)
(10.0008 -0.00197571 -5.61699e-20)
(10.0042 -0.00162366 5.61959e-20)
(10.007 -0.00903336 0)
(10.0193 -0.0246151 -2.27448e-20)
(10.0112 -0.0246203 8.55619e-20)
(10.0069 -0.0176147 7.22558e-20)
(10.1498 -0.00528812 0)
(10.1551 -0.0109783 7.04303e-21)
(10.1567 -0.0250613 5.64205e-21)
(10.0258 -0.00782293 -2.87992e-21)
(10.0314 -0.0193403 -1.90866e-20)
(10.0242 -0.0120496 4.80224e-20)
(10.0341 -0.0269415 -6.53457e-21)
(10.0258 -0.0304439 2.77493e-20)
(9.51766 0.0553146 -6.07594e-20)
(10.3523 -0.0333577 -4.44129e-21)
(10.3281 0.00757207 2.71181e-20)
(10.273 -0.00107807 -9.87162e-21)
(10.1691 0.0133989 -1.68193e-22)
(10.1652 0.00724914 1.72813e-21)
(10.1565 0.0225192 -1.31101e-20)
(10.1693 0.0209605 0)
(10.1676 0.0183086 0)
(10.164 0.0197426 -1.0891e-21)
(10.1639 0.0102042 0)
(10.1635 0.0150016 0)
(10.1629 0.0135792 -6.45278e-21)
(10.1657 0.00203004 0)
(10.1645 0.0046149 -3.16438e-20)
(10.1607 -0.00498487 -7.61767e-20)
(10.1647 -0.00157988 5.15213e-20)
(10.1657 -0.016527 0)
(10.1735 -0.0339534 1.59006e-20)
(10.1346 -0.00158078 8.01512e-21)
(10.1383 -0.00392981 -4.11947e-22)
(10.1454 -0.00664612 -2.01306e-20)
(10.148 -0.00788251 1.13692e-20)
(10.1514 -0.00973669 2.14307e-22)
(10.1569 -0.0104414 -1.64063e-22)
(10.1442 -0.0206535 8.48873e-22)
(10.2491 -0.0144597 1.0657e-21)
(10.161 -0.0117177 -4.75942e-22)
(9.93294 -0.01971 -1.17701e-20)
(8.57839 0.00817536 1.82003e-20)
(10.0004 -0.00286474 -1.16406e-19)
(10.003 -0.00950445 4.95158e-20)
(10.0163 -0.030807 -2.80889e-20)
(10.0092 -0.0286036 1.95096e-21)
(10.0052 -0.0203265 -1.37937e-19)
(10.1443 -0.0173742 -1.26982e-20)
(10.1378 -0.00784066 1.08006e-20)
(10.1448 -0.0341502 0)
(10.1839 -0.0562414 -3.01323e-20)
(10.1624 -0.0451704 -1.65802e-20)
(10.0401 -0.0164018 1.68658e-22)
(10.0392 -0.010979 -2.70465e-20)
(10.0414 -0.0308604 -1.9243e-22)
(10.0335 -0.035382 -6.31528e-21)
(10.0237 -0.0376697 -2.91923e-20)
(8.65196 0.0442608 -4.47906e-20)
(9.83372 0.103505 1.29625e-20)
(10.364 0.0415959 -1.30757e-20)
(10.3117 0.0226612 1.0952e-21)
(10.1779 0.0168046 4.66331e-21)
(10.1679 0.0100118 2.81169e-21)
(10.1714 0.00907225 9.2657e-21)
(10.1591 0.0225834 -2.52003e-21)
(10.1699 0.0231584 2.77618e-21)
(10.1702 0.0206152 0)
(10.1676 0.0223374 -8.99025e-21)
(10.1674 0.0134648 -1.03632e-20)
(10.1678 0.0161232 0)
(10.1736 0.00194773 -2.23549e-20)
(10.1721 0.00573238 -1.11686e-20)
(10.1733 -0.00329365 4.92394e-20)
(10.1709 -0.00945516 -1.83671e-20)
(10.1811 -0.0231482 -1.1285e-20)
(10.1951 -0.0411616 4.74155e-20)
(10.1378 -0.00203344 -4.83854e-21)
(10.1416 -0.00474638 8.98169e-21)
(10.1632 -0.0128242 2.24195e-21)
(10.1506 -0.00863596 6.63541e-21)
(10.1495 -0.00850188 0)
(10.153 -0.0102976 1.79291e-21)
(10.1584 -0.0107044 9.99419e-23)
(10.1539 -0.0103294 0)
(10.1536 -0.0178196 -1.84142e-21)
(10.1495 -0.0180193 -1.56284e-21)
(10.2878 -0.00593321 1.36101e-21)
(10.0372 -0.0552289 3.23344e-20)
(10.0008 0.00226675 -1.46976e-20)
(10.0003 -0.00386018 0)
(10.0021 -0.0120301 3.14747e-20)
(10.0142 -0.0363875 -7.01297e-21)
(10.0068 -0.0331529 0)
(10.0036 -0.0233581 1.04857e-20)
(10.2207 -0.0691133 -5.37998e-20)
(10.1206 -0.0105268 -7.06408e-23)
(10.1008 -0.0129384 0)
(10.1302 -0.0240936 -5.04578e-21)
(10.1345 -0.0432645 -1.21445e-21)
(10.0575 -0.0100883 0)
(10.0784 -0.0094599 0)
(10.1675 -0.0701445 1.45893e-20)
(10.148 -0.0552178 -1.44732e-22)
(10.051 -0.026074 1.04391e-19)
(10.0432 -0.0388961 4.98925e-20)
(10.0332 -0.0448613 1.27463e-20)
(10.0211 -0.0446398 0)
(8.45733 -0.00198813 3.57172e-20)
(9.41739 0.108925 0)
(10.2835 0.0579716 1.03667e-21)
(10.3183 0.0251717 -1.20744e-21)
(10.1958 0.018091 6.24098e-21)
(10.1722 0.0124917 1.19636e-20)
(10.1769 0.0102266 0)
(10.1604 0.0240899 3.83825e-21)
(10.1718 0.0254174 -8.11255e-22)
(10.1732 0.0234583 -3.50425e-21)
(10.1721 0.0251153 -1.67767e-21)
(10.1729 0.016824 2.02076e-22)
(10.1838 0.0015364 -1.29309e-20)
(10.1806 0.00643615 1.45042e-20)
(10.1855 -0.00515583 1.34336e-20)
(10.1849 -0.0134557 -1.21898e-20)
(10.201 -0.0269594 -4.74746e-20)
(10.228 -0.0455903 3.37761e-24)
(10.1415 -0.00257162 -2.68796e-21)
(10.151 -0.00716545 -2.96362e-20)
(10.1463 -0.00598209 1.86015e-20)
(10.1726 -0.0182949 -2.1141e-21)
(10.1648 -0.0129031 -6.41091e-22)
(10.1547 -0.0110803 -1.70099e-21)
(10.1566 -0.0118223 0)
(10.1598 -0.0112337 1.3106e-21)
(10.1569 -0.0120137 8.54303e-21)
(10.1589 -0.0128461 0)
(9.66491 -0.0878136 -8.2243e-20)
(9.38435 -0.0905962 1.47452e-20)
(10.1402 -0.0081692 0)
(10.3265 0.00276487 5.39885e-21)
(10.0004 0.00279668 1.43859e-19)
(10.0022 0.00844735 -1.36762e-19)
(10.0046 0.00104042 0)
(10.0003 -0.00456908 -1.95932e-20)
(10.0014 -0.0137754 7.19008e-20)
(10.0115 -0.0425228 5.93421e-21)
(10.0037 -0.0352033 0)
(10.0013 -0.0245215 -1.65581e-19)
(10.2051 -0.0913317 5.37741e-20)
(10.2663 -0.0674149 2.26323e-20)
(10.1189 -0.032666 -3.40853e-21)
(10.1015 -0.0267185 0)
(10.1186 -0.0514681 4.85483e-21)
(10.0819 -0.0232817 0)
(10.065 -0.0273031 -8.72423e-20)
(10.1471 -0.0803738 1.53692e-20)
(10.1315 -0.060234 3.86304e-21)
(10.0554 -0.0402268 -2.00911e-20)
(10.0446 -0.0518536 -1.17275e-20)
(10.0301 -0.0533044 4.04487e-20)
(10.0165 -0.0520198 -3.83494e-20)
(8.16083 -0.0231898 5.07103e-21)
(9.11396 0.0768994 3.32757e-21)
(9.05087 -0.0677813 6.79862e-21)
(10.2356 0.0382473 -2.3151e-21)
(10.3408 0.0272777 2.11364e-21)
(10.2081 0.0225449 -2.37916e-21)
(10.1786 0.016484 0)
(10.1847 0.0145594 -1.93596e-20)
(10.1621 0.0273228 -4.53418e-21)
(10.1735 0.0282435 7.5721e-21)
(10.1779 0.026629 1.49468e-21)
(10.1772 0.0273327 1.1042e-20)
(10.1908 0.0106027 1.93532e-20)
(10.1962 0.00464199 0)
(10.2005 -0.00370901 0)
(10.2024 -0.0143298 0)
(10.2291 -0.0241508 0)
(10.2668 -0.0398406 -4.674e-20)
(10.3058 -0.0634177 -7.31269e-20)
(10.1458 -0.00304165 2.68782e-21)
(10.1519 -0.00551198 8.28437e-21)
(10.1666 -0.0137473 2.31787e-21)
(10.1658 -0.0139333 1.76244e-22)
(10.1612 -0.0122641 -1.57431e-21)
(10.1627 -0.013514 -1.83482e-21)
(10.165 -0.0148975 0)
(10.1587 -0.011707 0)
(10.1617 -0.0137903 0)
(10.1705 -0.00446631 0)
(10.3663 -0.0137479 3.98673e-20)
(10.2982 -0.0295087 -3.0179e-20)
(10.0006 0.0048452 3.58964e-20)
(10.0023 0.0108661 -2.80004e-20)
(10.0049 0.0140268 -6.96671e-20)
(10.0137 0.00793521 0)
(10.0073 0.0109467 0)
(9.99992 -0.00489809 5.48283e-21)
(10.0009 -0.0153968 4.30632e-20)
(10.0078 -0.0459495 -1.27237e-21)
(10.0001 -0.03962 -2.96589e-20)
(9.9994 -0.030119 2.68299e-19)
(10.1824 -0.107198 1.46111e-22)
(10.2518 -0.0954674 4.55535e-20)
(10.3319 -0.104493 -7.17771e-20)
(10.0714 -0.0447521 -6.54462e-20)
(10.1023 -0.0508447 2.07691e-20)
(10.0892 -0.0406294 2.99525e-20)
(10.125 -0.0862508 0)
(10.1146 -0.0631381 -1.98603e-21)
(10.0586 -0.058824 -1.6188e-20)
(10.0413 -0.0623408 -4.45053e-20)
(10.023 -0.0623647 2.25341e-20)
(10.0111 -0.0568606 -1.42387e-20)
(10.3285 -0.0677787 0)
(8.03801 -0.0144865 -4.76751e-21)
(8.96722 0.0593654 2.26374e-21)
(8.85646 -0.0372871 -5.1739e-21)
(10.2084 0.0304272 7.18942e-22)
(10.3521 0.0290948 -7.02485e-22)
(10.2155 0.0307943 0)
(10.1841 0.0284763 0)
(10.1921 0.0277765 1.98775e-20)
(10.1773 0.0321437 0)
(10.1638 0.0352918 -7.59283e-23)
(10.1835 0.0299122 -1.45111e-21)
(10.2009 0.0245177 -1.9866e-20)
(10.21 0.0182427 0)
(10.2187 0.00815902 0)
(10.2256 -0.00593081 0)
(10.2611 -0.0151204 0)
(10.2944 -0.0339243 3.65597e-20)
(10.3373 -0.0485354 2.13589e-19)
(10.3657 -0.0675903 1.71745e-20)
(10.1492 -0.00212397 0)
(10.1556 -0.00580689 -8.3863e-21)
(10.1675 -0.0131689 0)
(10.1667 -0.0146737 5.91519e-21)
(10.1676 -0.0170006 -1.5481e-20)
(10.1681 -0.0192183 4.73078e-21)
(10.1679 -0.0166609 -1.61786e-20)
(10.1626 -0.0123109 2.60832e-21)
(10.1643 -0.0135404 0)
(10.167 -0.0177079 2.3886e-20)
(10.1792 -0.0113264 0)
(10.2687 0.0176705 1.65126e-20)
(10.0006 0.00603106 -6.6339e-20)
(10.024 0.00792149 2.01465e-20)
(10.0034 0.0164449 0)
(10.0063 0.0204316 -1.2002e-21)
(10.0114 0.0147301 5.67432e-20)
(9.99982 -0.00454649 0)
(9.99905 -0.0147251 -4.79303e-20)
(10.0024 -0.0501737 3.29772e-20)
(9.99526 -0.0388503 0)
(9.99592 -0.0297267 0)
(9.99821 -0.0211417 -1.81871e-21)
(10.1556 -0.117114 -2.44479e-21)
(10.3758 -0.143287 1.00424e-19)
(10.2208 -0.121583 -2.29071e-21)
(10.2941 -0.132215 -7.35951e-20)
(10.105 -0.0877149 5.44071e-20)
(10.0758 -0.0604832 0)
(10.0949 -0.0660404 -2.45661e-20)
(10.0558 -0.071482 0)
(10.0311 -0.0740532 4.99328e-21)
(10.0152 -0.0694367 4.30347e-20)
(10.0038 -0.0620345 -1.717e-20)
(10.2778 -0.044145 0)
(7.97171 -0.0143033 2.83076e-21)
(8.87343 0.0583276 -3.67978e-21)
(8.77245 -0.0338201 -7.70906e-22)
(10.1706 0.0247905 9.3014e-22)
(10.3546 0.0321527 1.2827e-21)
(10.2175 0.045513 6.02362e-22)
(10.2025 0.0342646 2.16556e-20)
(10.192 0.0326873 -1.05222e-20)
(10.1839 0.0375321 1.26253e-21)
(10.1675 0.0486907 -1.3579e-21)
(10.2142 0.0323739 -2.86083e-20)
(10.2268 0.0271797 1.69901e-20)
(10.2517 0.00461068 0)
(10.2397 0.0185536 0)
(10.2846 -0.00717767 -1.3067e-20)
(10.3523 -0.00679621 7.77355e-20)
(10.3228 -0.0104951 0)
(10.3868 -0.0273183 -2.16474e-19)
(10.4095 -0.0981627 -1.38822e-19)
(10.1534 -0.00199099 4.60075e-21)
(10.1592 -0.00539021 -2.4912e-21)
(10.1663 -0.011928 1.79739e-20)
(10.1677 -0.0190119 4.11261e-21)
(10.1709 -0.0178415 1.34423e-20)
(10.1709 -0.022375 -1.95316e-21)
(10.1721 -0.0176948 3.80151e-22)
(10.1683 -0.0143424 -2.20955e-21)
(10.1694 -0.0195191 8.67954e-21)
(10.1625 -0.0250278 0)
(10.2431 -0.0113444 -2.6842e-22)
(10.0002 0.00576228 -4.06149e-20)
(10.0016 0.0153458 8.27243e-20)
(10.0388 0.00743754 -2.92267e-20)
(10.0282 0.0195711 -5.32117e-20)
(10.0054 0.0232374 3.26338e-20)
(10.0107 0.0237522 -2.44802e-20)
(10.0205 0.0216371 5.20159e-20)
(9.99812 -0.0115132 0)
(9.99964 -0.00369927 0)
(9.99562 -0.0495736 -1.67796e-20)
(9.99021 -0.0373566 -5.5734e-20)
(9.99263 -0.0285313 1.70765e-20)
(9.99556 -0.0198248 1.86055e-21)
(10.1294 -0.120859 -1.73385e-20)
(10.4297 -0.194628 -1.73006e-19)
(10.1871 -0.141317 -4.56134e-21)
(10.3358 -0.183464 2.63738e-20)
(10.2546 -0.17051 2.99614e-20)
(10.0896 -0.0917666 -4.40328e-20)
(10.0717 -0.077353 -1.3085e-20)
(10.106 -0.120135 2.44037e-20)
(10.0438 -0.0869613 -7.25914e-20)
(10.0215 -0.0847295 0)
(10.0054 -0.0762224 -1.34108e-20)
(9.99426 -0.062507 -3.59075e-21)
(10.3034 -0.0456746 5.32587e-22)
(7.93231 -0.0224569 0)
(8.78228 0.0615751 1.11799e-21)
(8.6951 -0.0299578 0)
(10.1348 0.0194152 -1.33494e-21)
(10.3541 0.036525 -5.95552e-22)
(10.2088 0.0612127 9.43417e-23)
(10.2077 0.0498954 0)
(10.1941 0.0439204 8.91711e-22)
(10.1761 0.0610215 1.5719e-20)
(10.2255 0.043969 0)
(10.2399 0.038036 3.36366e-20)
(10.2713 0.0133253 -4.37415e-21)
(10.256 0.0289897 -3.87128e-20)
(10.3098 0.00233276 -2.53128e-21)
(10.3587 0.030834 9.62274e-20)
(10.3963 0.00753357 -4.42885e-20)
(10.4345 -0.0478544 1.61611e-19)
(10.4674 -0.138477 3.97377e-20)
(10.157 -0.00187208 0)
(10.1639 -0.00511393 0)
(10.1708 -0.0110171 -2.44072e-20)
(10.1724 -0.0147094 6.50886e-22)
(10.1684 -0.0231031 -9.49363e-21)
(10.1722 -0.020537 0)
(10.1739 -0.0264312 -2.42194e-21)
(10.1746 -0.0191443 -3.83628e-21)
(10.1736 -0.020377 3.53006e-21)
(10.1691 -0.0270724 4.36112e-21)
(10.2608 -0.0136444 1.21449e-22)
(10.0001 0.00434482 3.33595e-20)
(10.0004 0.0131241 8.36184e-20)
(10.0018 0.0206614 -1.22278e-19)
(10.0037 0.0245429 -4.43356e-20)
(10.057 0.00733525 0)
(10.0413 0.0194754 3.40837e-20)
(10.0334 0.0301798 -4.11004e-20)
(10.0089 0.0290946 -1.42934e-20)
(10.0168 0.0302366 0)
(10.0272 0.0310923 -8.74818e-20)
(10.0774 0.00695095 -4.22823e-21)
(9.99704 -0.00801443 5.0137e-20)
(9.99954 -0.00228591 0)
(9.99985 0.00370553 0)
(9.98793 -0.0473087 -2.07404e-20)
(9.98541 -0.0315785 4.39404e-20)
(9.99237 -0.0154103 -5.40332e-20)
(9.98822 -0.0235027 0)
(10.1493 -0.155353 -3.36651e-22)
(10.3836 -0.243823 1.49854e-20)
(10.2114 -0.194268 5.8965e-21)
(10.2897 -0.220205 3.09688e-22)
(10.0817 -0.115731 3.3181e-20)
(10.0606 -0.0989231 5.99406e-20)
(10.1122 -0.160296 0)
(9.98325 -0.0602272 4.40573e-20)
(10.0332 -0.103693 -7.78838e-22)
(10.0094 -0.0952303 0)
(9.99233 -0.0781723 -1.65777e-20)
(10.2869 -0.0421398 -7.6839e-23)
(7.90018 -0.026642 4.54634e-22)
(8.69858 0.0680725 -6.97003e-22)
(8.6489 -0.0268999 -1.23401e-21)
(10.2081 0.0708765 0)
(10.1219 0.00704599 1.13284e-22)
(10.3478 0.0396389 -1.1796e-22)
(10.2062 0.0673074 -2.32835e-20)
(10.1901 0.0704481 3.65645e-21)
(10.2486 0.0628181 -7.64444e-21)
(10.2332 0.0613144 2.84124e-20)
(10.2906 0.037369 -5.48616e-20)
(10.3239 0.0460283 -1.00532e-19)
(10.2711 0.0408269 7.1642e-20)
(10.3827 0.048428 0)
(10.4462 0.0087144 9.69035e-20)
(10.496 -0.0759716 0)
(10.159 -0.00160833 4.3384e-21)
(10.1713 -0.00411246 4.4797e-20)
(10.1755 -0.00926585 0)
(10.1774 -0.0143861 -3.78272e-22)
(10.1783 -0.0210353 -1.0545e-20)
(10.1699 -0.0293789 0)
(10.1746 -0.0225969 0)
(10.1776 -0.029561 -3.54818e-22)
(10.1794 -0.0213223 1.0219e-20)
(10.1701 -0.0342111 1.12861e-21)
(10.2637 -0.0191796 -1.08388e-21)
(10.1563 0.000496589 -5.27856e-21)
(10.1516 0.00160136 0)
(9.99937 0.0130906 1.34617e-20)
(9.99925 0.0213917 0)
(10.0029 0.0287684 4.6576e-20)
(10.0068 0.0324781 1.43339e-20)
(10.0576 0.0203673 0)
(10.0441 0.0315037 5.71817e-20)
(10.0345 0.0368943 3.77484e-21)
(10.0144 0.0367233 0)
(10.0243 0.0380238 0)
(10.0758 0.0219088 -4.31987e-22)
(10.0983 0.00594227 -4.05427e-21)
(10.1177 0.00349184 0)
(10.1334 0.000155549 4.69528e-20)
(10.1467 0.00504579 -4.64776e-20)
(9.99927 0.000644247 0)
(9.99572 -0.00261043 0)
(9.99966 0.00200009 0)
(9.99823 0.0115422 0)
(9.97159 -0.0514502 -2.15785e-20)
(9.98002 -0.0395167 5.48447e-20)
(9.98185 -0.0249431 0)
(9.98895 -0.00926122 5.34772e-20)
(10.1641 -0.213957 2.08598e-20)
(10.3307 -0.287342 2.31514e-20)
(10.2387 -0.251974 -2.11078e-20)
(10.0513 -0.123405 2.83578e-21)
(10.0774 -0.139378 -6.30567e-22)
(10.0969 -0.191823 1.04849e-20)
(10.1188 -0.229938 -3.6901e-20)
(9.96073 -0.0655649 0)
(9.97672 -0.0760179 -2.64626e-21)
(10.0186 -0.118593 0)
(9.99121 -0.0998256 0)
(10.3062 -0.043538 0)
(8.6075 0.073781 -1.71666e-22)
(7.85609 -0.0309113 -2.62275e-22)
(8.71544 -0.0394388 -1.01414e-20)
(10.3332 0.0514099 0)
(10.1662 -0.00310428 -4.25748e-21)
(10.2187 0.095718 -3.98726e-21)
(10.2414 0.0727653 -1.40694e-20)
(10.3203 0.0856257 0)
(10.2789 0.0802224 0)
(10.3615 0.0806189 -3.90047e-20)
(10.4432 0.0643434 4.53818e-21)
(10.5129 -0.00720194 2.47415e-20)
(10.1693 0.000872319 -5.35369e-20)
(10.1803 -0.00708015 0)
(10.1829 -0.0128293 1.44885e-20)
(10.1842 -0.0208393 3.793e-22)
(10.1847 -0.0230742 1.82918e-21)
(10.1726 -0.0367312 -1.16264e-21)
(10.1786 -0.025522 1.53681e-21)
(10.1826 -0.0324534 0)
(10.2663 -0.0251159 3.02712e-22)
(10.172 -0.0416176 -7.42545e-22)
(10.1567 0.0133456 2.24299e-20)
(10.1668 0.00522817 8.75977e-21)
(10.1611 0.00984514 -2.85406e-21)
(9.99798 0.0212394 1.63997e-20)
(9.99973 0.0292921 -3.1889e-20)
(10.005 0.0372141 -1.61031e-20)
(10.0118 0.0416952 1.36549e-20)
(10.0586 0.0335475 0)
(10.0451 0.0409545 2.20716e-20)
(10.0334 0.0450169 -3.57103e-21)
(10.0219 0.0456579 1.12453e-21)
(10.0746 0.0364045 -1.72035e-20)
(10.0962 0.0270772 1.46503e-20)
(10.0917 0.0378027 -7.58329e-21)
(10.1582 0.0227919 1.36479e-20)
(10.1155 0.0254653 -1.12898e-23)
(10.1474 0.023857 -1.15529e-21)
(10.1332 0.0238434 4.13446e-21)
(9.99665 0.00852639 0)
(9.99262 0.00363055 0)
(9.99564 0.0196138 6.10251e-20)
(9.98541 0.00244155 -1.07189e-19)
(9.96077 -0.0417161 -5.67953e-20)
(9.97242 -0.0311249 2.54976e-20)
(9.98089 -0.012523 1.70427e-20)
(9.94677 -0.0509324 0)
(10.1844 -0.276263 0)
(10.2717 -0.324642 1.49793e-20)
(10.0366 -0.1556 -2.35465e-20)
(10.0557 -0.21008 3.16339e-20)
(10.0613 -0.168766 3.08021e-20)
(10.0653 -0.248085 -1.582e-20)
(10.1285 -0.29356 6.25846e-21)
(9.96894 -0.0962668 -4.44763e-20)
(9.94791 -0.0813491 5.29377e-20)
(9.99174 -0.129619 -3.8616e-20)
(10.3892 -0.0543825 2.69653e-21)
(8.51382 0.103513 8.96618e-21)
(7.78551 -0.0326881 -4.76181e-20)
(8.72387 -0.0980721 -5.91408e-21)
(10.3602 0.0608979 1.69497e-20)
(10.2567 0.0168266 -1.84432e-20)
(10.252 0.108576 4.21006e-20)
(10.263 0.0819343 -2.31754e-20)
(10.3417 0.118069 1.84265e-19)
(10.4263 0.118303 3.11716e-19)
(10.5174 0.0634393 -2.35531e-19)
(10.1814 -0.0017588 0)
(10.1886 -0.00957329 -3.03814e-20)
(10.1911 -0.0191002 -1.0931e-22)
(10.1918 -0.0239155 -1.18865e-20)
(10.1893 -0.034206 1.19145e-21)
(10.1782 -0.0446537 3.88521e-22)
(10.1845 -0.0294101 5.87363e-22)
(10.2331 -0.0325445 -2.67563e-22)
(10.1693 -0.0499104 0)
(10.1671 0.0145987 0)
(10.1816 0.00471336 0)
(9.99305 0.0283344 1.01853e-19)
(9.99684 0.029793 -1.6797e-20)
(10.001 0.0385726 4.97951e-20)
(10.0089 0.0476999 0)
(10.0193 0.0526343 -4.34766e-20)
(10.059 0.0454451 -6.4549e-21)
(10.045 0.0510226 -1.45263e-21)
(10.0316 0.0546797 1.48179e-20)
(10.0744 0.0484588 1.09759e-20)
(10.0909 0.0553779 1.71204e-20)
(10.1065 0.0473646 -6.03937e-21)
(10.1683 0.0239677 5.97044e-21)
(10.1638 0.0307903 1.4512e-20)
(10.1218 0.0443004 1.21009e-21)
(10.1537 0.0350604 -2.50655e-21)
(10.1395 0.0399706 -1.32382e-20)
(9.99258 0.0164986 5.80921e-20)
(9.98735 0.0117359 7.48861e-20)
(9.9891 0.0248697 -2.20975e-19)
(9.97704 0.000861976 -1.78155e-20)
(9.93091 -0.0667388 1.64502e-20)
(9.95033 -0.0236211 -2.77349e-19)
(9.96442 -0.0122708 8.90089e-20)
(9.9341 -0.0260287 0)
(9.98672 0.0317044 4.48731e-20)
(10.2074 -0.353163 -3.08791e-21)
(9.99982 -0.170994 0)
(10.0114 -0.202567 6.7594e-20)
(10.0204 -0.249351 -3.92434e-20)
(10.0698 -0.303696 0)
(10.1382 -0.371545 -4.53284e-21)
(9.94628 -0.162164 -9.44918e-20)
(9.95311 -0.129225 3.2322e-20)
(9.92724 -0.119671 -1.34335e-19)
(10.4167 -0.0955984 7.43872e-21)
(8.32329 0.223337 3.28082e-21)
(7.78369 -0.0421468 2.98575e-19)
(8.31899 -0.228049 -1.7031e-19)
(10.3275 0.149798 -1.86337e-21)
(10.2874 0.143101 -1.60572e-19)
(10.3539 0.148171 8.16687e-20)
(10.3952 0.167537 -1.84505e-19)
(10.5062 0.136404 -7.77203e-21)
(10.1936 -0.00418377 1.5992e-20)
(10.1984 -0.0150081 -3.41966e-23)
(10.2006 -0.0227286 1.69794e-20)
(10.1986 -0.0345119 -1.12859e-21)
(10.185 -0.0540176 -7.48767e-22)
(10.1927 -0.0332992 1.86607e-21)
(10.2111 -0.0519603 1.56137e-22)
(10.1762 -0.0604547 2.01937e-20)
(10.1818 0.0133103 0)
(10.1974 0.00374598 -1.82506e-20)
(9.99125 0.0370801 -3.71476e-20)
(9.9965 0.0391257 -3.32721e-20)
(10.0037 0.0512442 0)
(10.0162 0.0614157 -2.77394e-20)
(10.0295 0.0631222 1.58381e-20)
(10.0593 0.05655 6.20916e-21)
(10.0439 0.0635386 0)
(10.0758 0.0615357 -3.09967e-21)
(10.0945 0.0631429 -1.7256e-21)
(10.1133 0.062718 4.39041e-21)
(10.1812 0.0243722 -1.04349e-20)
(10.1751 0.0349681 0)
(10.1314 0.0589063 -5.37482e-22)
(10.1642 0.0447218 -1.05414e-21)
(10.1492 0.0525809 -7.2566e-21)
(9.97911 0.0114806 -3.24533e-20)
(9.98209 0.0238845 0)