/*--------------------------------*- C++ -*----------------------------------*\
  =========                 |
  \\      /  F ield         | OpenFOAM: The Open Source CFD Toolbox
   \\    /   O peration     | Website:  https://openfoam.org
    \\  /    A nd           | Version:  8
     \\/     M anipulation  |
\*---------------------------------------------------------------------------*/
FoamFile
{
    version     2.0;
    format      ascii;
    class       surfaceScalarField;
    location    "0.033";
    object      phi;
}
// * * * * * * * * * * * * * * * * * * * * * * * * * * * * * * * * * * * * * //

dimensions      [0 3 -1 0 0 0 0];

internalField   nonuniform List<scalar> 
1107
(
0.000315986
-0.000643377
0.00063349
-0.0003061
0.000616968
-0.000300982
-2.96783e-05
0.000646646
0.00030497
0.000538561
-0.000106654
-0.000736877
-0.000968681
0.000630274
-9.76096e-05
0.000701421
0.000286065
-5.36035e-05
-1.49169e-05
-3.72524e-05
0.000683898
-3.30791e-05
1.4357e-05
-8.79318e-05
0.000180743
-0.000148793
-6.50293e-05
0.000300279
-0.000856412
-0.00126759
0.000599191
-0.000207332
0.000739997
0.000760846
-9.66776e-05
4.16768e-05
0.000814675
-9.55058e-05
3.58288e-06
-4.28293e-05
-1.1334e-05
0.000725575
0.0008527
2.98854e-05
-6.79094e-05
6.44838e-05
-0.000126773
-8.6504e-05
2.5153e-05
-4.8601e-05
0.000227311
-0.000140657
-0.000213427
0.000277816
-0.000115534
0.000296544
-0.00087514
-0.00151041
0.000539361
-0.000366201
0.000758059
0.000828494
-0.000185175
0.000898712
-0.000165724
5.2165e-06
-2.28928e-05
-6.11755e-06
-2.21642e-05
0.00086458
1.02838e-05
0.00075546
0.000945376
-0.000114574
0.000962464
-3.9252e-05
0.000950797
-2.39259e-05
3.55928e-05
3.53824e-05
-7.27092e-05
-4.91772e-05
1.36138e-05
-2.68323e-05
-8.23372e-05
-0.000131029
0.000322002
-0.000214983
-0.000320446
0.000397084
-0.000190616
0.000306631
-0.000784687
0.000459631
-0.00166341
-0.000569778
0.000742937
0.00088035
-0.000307466
0.000967494
-0.000252867
2.99622e-06
-1.22752e-05
-3.12133e-06
8.79614e-05
0.00091596
-5.31245e-05
0.000852979
-1.23246e-05
0.000765744
0.00102467
-0.000171747
0.00104865
-6.32399e-05
0.00103773
4.65209e-05
0.000997718
0.00012797
-0.000118088
0.000931555
0.00018425
5.73985e-05
-0.000104098
-3.56377e-05
2.75806e-05
-1.93594e-05
1.04056e-05
-9.65729e-06
-0.000129637
-0.000216375
-6.18715e-05
-0.000171864
0.000690511
-0.000800657
0.000901411
-0.000465939
0.00100931
-0.000360762
2.20658e-06
-4.07622e-06
-9.14744e-07
0.000864971
-6.70979e-05
0.000823507
-2.3653e-05
0.00075342
0.000822073
-0.000146957
0.000256439
0.0010772
-0.000239637
0.00110769
-9.37308e-05
0.00109922
5.49888e-05
0.00105542
0.000171766
0.000972343
0.000267332
4.56119e-05
-3.0601e-05
-7.68824e-05
2.44242e-05
-1.445e-05
1.14619e-05
-6.39704e-06
4.27794e-06
-2.47333e-06
0.000875788
-0.000651216
0.00100276
-0.000487735
8.82487e-07
-6.80773e-07
-3.22587e-08
0.000333449
0.000669605
-0.00018098
0.000790202
-7.21887e-05
0.000785309
-2.88994e-05
0.000729766
0.000825853
0.000402928
0.000621909
0.000537393
0.00038794
-0.00129459
0.00152856
0.00108076
-0.000317638
0.00111971
-0.000132681
0.00111827
5.64292e-05
0.0010733
0.000216739
0.000971762
0.000368868
-3.58247e-05
-5.57244e-05
6.09481e-05
-1.92525e-05
-3.10222e-05
-9.08878e-06
-1.65607e-05
-3.37993e-06
-8.18216e-06
-6.7086e-07
-3.38984e-06
-7.03116e-07
0.000988839
0.000344669
-0.000945568
0.000371351
-0.000996336
0.000687848
-7.86252e-05
0.000738926
-2.58064e-05
0.000700867
0.000791175
0.000583515
0.000546196
0.000782372
0.000411141
0.00166361
0.000482048
0.000917932
-5.76398e-05
-9.51402e-05
9.70555e-05
-3.12125e-05
-5.74495e-05
-1.47356e-05
-3.30377e-05
-5.45625e-06
-1.74615e-05
-1.09269e-06
-7.75339e-06
-1.79581e-06
0.00010278
0.000299323
-5.74342e-05
0.000227368
-0.000801584
0.000357746
-0.000666234
0.000680795
-2.04938e-05
0.000675061
0.000413716
0.000171112
-4.42116e-05
-0.000124735
7.38059e-05
-2.43132e-05
-7.73479e-05
-1.17038e-05
-4.56471e-05
-4.45419e-06
-2.4711e-05
-9.66342e-07
-1.12412e-05
-2.76215e-06
0.000247436
0.000201201
-0.000149314
0.000200553
-3.06198e-05
0.000136034
-0.000579873
0.000342977
-0.000328416
0.000654567
0.000294925
0.000366227
-1.43772e-05
-0.000133328
2.29701e-05
-8.16086e-06
-8.35642e-05
-4.04456e-06
-4.97634e-05
-1.62538e-06
-2.71302e-05
-3.97834e-07
-1.24688e-05
-3.15998e-06
0.000150058
0.000134729
-8.35857e-05
0.000128042
-7.68025e-05
0.000120572
-1.51571e-05
6.9925e-05
-0.00030682
0.000326151
0.000199168
0.000245815
1.42085e-05
-0.00012154
-2.59962e-05
7.23021e-06
-7.65859e-05
3.22665e-06
-4.57598e-05
1.14006e-06
-2.50436e-05
1.84509e-07
-1.15132e-05
-2.97547e-06
0.000128918
7.76254e-05
-7.18138e-05
8.49268e-05
-4.04708e-05
7.36233e-05
-2.9854e-05
5.9165e-05
-4.3972e-06
1.93302e-05
0.000117971
0.000210114
-8.77647e-05
5.90292e-05
0.000146707
1.6368e-05
-3.59269e-05
-0.000101981
7.66503e-06
-6.7883e-05
3.28253e-06
-4.13773e-05
1.18447e-06
-2.29455e-05
2.28333e-07
-1.05571e-05
-2.74714e-06
3.79148e-05
-4.8054e-05
4.78608e-05
-3.47478e-05
4.84726e-05
-1.53202e-05
3.51667e-05
-5.85566e-06
1.4933e-05
-5.10543e-05
2.39144e-05
8.61691e-05
-3.14269e-05
5.68505e-05
-6.68009e-05
-1.23823e-05
-4.19901e-05
-2.77727e-06
-2.01621e-05
-5.52441e-06
1.45044e-05
-2.76438e-05
2.27921e-05
-2.29853e-05
2.68225e-05
-1.30978e-05
2.29323e-05
-3.08584e-06
9.0773e-06
5.36001e-06
-2.51465e-05
4.37009e-05
-2.18168e-06
6.79556e-06
7.16186e-06
-1.17757e-05
-1.27874e-05
5.51892e-05
-6.25639e-05
-1.83119e-05
-1.36685e-06
-8.1086e-06
1.48355e-05
2.64725e-06
-1.32894e-05
8.233e-06
-1.30848e-05
1.24751e-05
-8.63783e-06
1.25317e-05
-2.69712e-06
5.99145e-06
1.27464e-06
4.14322e-06
-7.59955e-06
-5.89041e-07
3.33001e-06
4.05458e-06
-1.8775e-06
8.27613e-06
-1.64577e-05
1.00591e-05
-2.66258e-06
-5.76846e-07
1.87257e-06
-1.41133e-06
-4.05001e-06
1.10904e-06
-6.1654e-06
4.26416e-06
-4.87381e-06
5.71418e-06
-1.82031e-06
3.29433e-06
3.11257e-06
1.59491e-06
-3.43285e-06
1.47198e-06
2.08221e-06
5.14798e-08
1.40104e-06
-7.53525e-07
2.97438e-06
6.05531e-06
-2.62766e-06
4.70986e-06
-2.3391e-05
2.13088e-05
-1.91397e-06
1.86792e-06
-2.61652e-06
-1.95236e-06
-3.57965e-08
-1.17331e-06
-1.76767e-06
3.63136e-07
-2.26437e-06
1.85836e-06
-1.01798e-06
1.47402e-06
3.45753e-06
-2.92362e-07
-5.25978e-08
2.39855e-06
6.68389e-07
1.20568e-06
9.28003e-07
2.01746e-07
4.45758e-07
-2.04339e-07
5.51055e-07
-5.70327e-07
5.28018e-06
-1.08395e-06
1.54584e-06
-2.37587e-06
-1.25166e-06
1.16724e-06
-1.30808e-06
9.89762e-08
-8.00338e-07
-6.04192e-07
6.29849e-08
-4.68992e-07
4.56038e-07
2.44947e-06
-2.05468e-06
3.06274e-06
2.40728e-06
-3.01074e-07
1.63648e-06
2.37585e-07
8.05894e-07
3.23853e-07
1.6218e-07
7.92329e-08
-1.92716e-08
-1.49709e-06
-8.413e-07
1.25444e-06
-5.97163e-07
8.91349e-07
-7.56586e-07
6.15748e-07
-7.77782e-07
7.64211e-08
-4.29875e-07
-1.11331e-07
-1.29555e-08
1.368e-06
-1.84721e-06
2.92868e-06
1.57282e-06
-1.22021e-06
1.53401e-06
-1.98612e-07
9.82786e-07
6.06856e-08
4.25069e-07
6.09631e-08
5.99603e-08
-2.1817e-06
-1.2313e-06
1.91591e-06
-9.35714e-07
-5.02748e-07
-3.07408e-07
4.4217e-07
-4.11802e-07
2.49766e-07
-3.79651e-07
2.61971e-08
-1.24287e-07
1.94407e-06
1.14435e-06
-1.72042e-06
7.67772e-07
-1.04217e-06
9.31438e-07
-6.17645e-07
8.76687e-07
-9.25158e-08
4.81056e-07
4.69569e-09
1.20925e-07
-2.59642e-06
-6.74093e-07
1.08881e-06
-1.45134e-06
-7.15678e-07
-5.48855e-07
-2.61304e-07
-1.40683e-07
1.71049e-07
-1.85599e-07
5.57132e-08
-9.80903e-08
-2.52576e-06
1.42013e-07
-2.12676e-07
1.13231e-06
-1.71399e-06
1.22676e-06
6.85362e-07
3.99733e-07
-5.10463e-07
5.00123e-07
-2.41082e-07
4.13007e-07
-2.44676e-08
1.25624e-07
-1.74228e-06
-3.83171e-07
-9.04675e-07
-3.5986e-07
-2.94289e-07
-1.07699e-07
-5.00429e-08
3.54921e-08
-4.23768e-08
-1.68807e-06
8.77949e-08
6.71001e-07
7.28352e-07
3.56743e-07
1.85623e-07
-1.95961e-07
2.23198e-07
-5.12723e-08
1.01158e-07
-1.09712e-06
-1.90728e-07
-5.12219e-07
-1.41932e-07
-1.32692e-07
-2.50509e-08
-6.88508e-09
-1.05671e-06
4.73804e-08
3.42647e-07
3.95307e-07
1.47058e-07
6.74349e-08
-4.01968e-08
4.98855e-08
-6.27114e-07
-7.58349e-08
-2.42696e-07
-3.19291e-08
-3.19359e-08
-6.00745e-07
2.10105e-08
1.37209e-07
1.80166e-07
3.43252e-08
9.68926e-09
-3.00765e-07
-1.77668e-08
-6.38653e-08
-2.85762e-07
6.00583e-09
3.16133e-08
4.40142e-08
-8.1633e-08
-7.56277e-08
0.000596925
-0.00138161
-0.00106649
0.000322702
-0.000539076
0.000859852
-0.00053715
0.000539406
0.00130374
-0.000764336
0.00111313
-0.000268486
0.00156898
-0.00183747
0.000502499
-0.000298158
-0.00139288
0.000628547
0.00013911
-0.000310974
-0.000399966
4.4398e-05
-0.00012128
-0.000266576
0.000330276
-0.000730242
0.00117469
-0.000844412
0.000637538
-0.000755345
0.00207102
-0.00144247
0.00023355
0.00130693
-0.00107338
0.00100877
0.000357557
0.00101534
-0.00177069
-0.000427131
-6.03323e-05
0.000229772
-0.000290105
-3.68039e-05
-0.000767046
-6.81625e-05
-0.000698883
0.00136789
-0.00143605
0.00052348
-0.00124721
0.0014211
-0.00184823
0.000347721
0.000882954
-0.000535232
-0.00124051
0.000752776
-0.00137104
0.0010534
-0.000618266
0.000979081
-0.00222629
-0.000869152
0.000858879
0.000804733
0.00177681
-0.000409863
0.000993378
-0.00148148
0.00134879
-0.000428072
-0.0011538
0.000743938
-0.000784933
-0.00131296
0.00136938
3.58393e-05
-0.001283
0.000498066
-0.00106626
0.000303124
-0.000193049
0.000131701
-0.00032475
-0.000567182
0.000277815
-0.000844998
-0.00115824
0.000195076
-0.00135332
-0.00203121
0.00112905
-0.0019982
-0.000593817
-2.44487e-05
-0.000650907
0.000222834
-0.000675355
-3.75282e-05
-0.00199369
-0.00203573
-0.000895065
0.0016998
-0.000112693
0.000880686
0.000285834
0.00149098
0.00198563
0.00166209
-1.51513e-05
0.000895837
-0.000998605
0.000983453
-0.000254667
-0.000561299
0.000597138
-0.000338464
-0.000950189
0.000695522
-0.000452123
-0.000778705
0.000326582
-0.000475581
0.000121558
-0.000250944
7.98035e-05
-0.000330748
-0.000765194
3.21845e-05
-0.000797379
-0.00132113
-0.000354488
-0.000966642
-0.00234817
0.000901575
-0.00124004
0.00022622
-0.00180951
-0.00144102
0.00020098
0.000925634
-0.00273514
-0.00142254
0.000550038
0.00143559
0.00144587
-0.00100125
0.00136748
0.000660836
0.00209643
0.000114446
0.00133143
0.0010979
6.49409e-05
0.00103296
0.000760463
0.000247811
0.000512652
0.000574393
0.000695951
-0.000745069
-0.000307777
8.76403e-06
-0.000316541
-0.000788615
-0.000349274
-0.000439341
-0.00131592
-0.000425309
-0.000890607
-0.00184785
0.00201872
-0.00181774
-0.000716423
0.00173377
-0.00247884
-8.39713e-05
0.00128313
-0.00199955
-0.000564722
-0.000608762
0.000854577
0.000758719
-0.00119485
0.00195357
0.000901578
0.00223301
0.00142357
0.000809433
0.00245653
0.00296918
-0.000634083
0.00204234
-0.00140826
0.00311292
-0.000143737
-0.000342538
0.000561383
-0.0011261
-9.44295e-05
-0.000248108
-0.00053377
-0.000119677
-0.000414093
-0.00101028
-0.000448901
0.00180332
0.000239016
-0.00171935
-0.000280199
-0.000719188
0.000958204
-0.000966839
-0.000159266
0.000644166
-0.000924366
-0.000322672
-0.00115962
0.000440436
-0.00031883
0.000528944
0.000535747
2.49957e-05
-0.00059322
0.000568225
-0.00113463
-0.000120988
0.000342356
-0.000221368
-0.000714209
-0.000686158
0.00122191
0.00126741
0.00207685
-0.000340491
-0.000794137
-0.00174875
0.00121153
0.000865311
0.0010678
-0.000680949
-0.000284035
0.000391344
-0.00055061
-0.000668837
0.000219935
-0.000277493
-0.000125383
-0.000158652
-0.000539476
-0.000319541
-0.00124398
0.000319616
-0.000285778
-0.000598591
0.000312813
-0.000158155
-0.000498067
-5.25422e-05
0.00082074
-0.000501124
-0.000663893
0.000505738
-9.56679e-05
0.000361404
-1.90478e-05
0.000265736
-0.000214932
0.000195885
1.68885e-05
0.000141567
-0.000158456
-0.000198044
-0.000419412
-0.000253264
-0.000166148
-0.000110432
0.000257138
0.000418512
-0.00014371
0.000562221
0.0010782
0.000310192
-0.000563456
-0.000404017
-0.00119815
0.000469623
0.000608573
-0.000653985
-0.00054417
0.00133493
-2.1983e-05
0.000108152
0.000235155
0.000113013
-0.000271665
-1.10325e-05
-0.000460619
0.000183126
-0.000513161
-0.0001004
-0.000171265
-0.000419941
-0.000236815
0.00047477
3.09677e-05
-0.000787583
0.00028646
-0.000524602
1.14401e-05
-0.000238142
-0.000294766
0.000325733
-0.000340136
4.53707e-05
-7.43998e-05
-0.00023391
0.00015951
-3.8025e-05
-0.000129235
9.12102e-05
1.23322e-05
5.24124e-06
2.39925e-05
-2.92337e-05
1.24031e-05
-2.34119e-05
4.74044e-05
6.83863e-05
-9.17982e-05
8.07184e-05
-4.55531e-05
-4.62451e-05
-0.000204009
-2.33577e-05
-5.87591e-06
-6.96029e-05
-1.76517e-05
-9.92305e-05
-0.000104778
-0.000265378
-0.000100907
-0.000164471
-0.000664363
-9.26545e-05
0.00032781
0.000469567
0.00107814
-0.000432171
-0.000232192
0.000976341
0.000101799
1.69817e-05
2.67192e-05
0.000125134
4.38977e-05
8.12361e-05
0.000371708
5.36017e-05
-0.000224867
1.31992e-05
-7.28682e-05
-0.000151999
-0.000309683
-0.000298243
-0.000231686
-6.65564e-05
-0.000469828
-0.000144095
0.000188171
-2.86616e-05
-0.000233542
8.94471e-05
5.23028e-05
2.84157e-05
0.000143513
0.000114851
4.01277e-05
7.27665e-06
6.85434e-05
1.73357e-05
-4.73753e-05
-2.22276e-05
-0.000152154
-2.19223e-05
4.27065e-06
-4.415e-05
-3.32888e-06
1.38831e-05
9.52349e-07
4.06023e-05
-9.93637e-05
-5.279e-05
-0.000263835
-0.000143184
-0.000120651
-0.000375376
0.000331593
4.01152e-05
0.000433391
5.80153e-05
7.12599e-06
3.34763e-05
8.8362e-05
0.000128477
9.51324e-05
-2.6589e-05
0.000209984
-0.000232874
8.08758e-05
-0.000299431
-1.83119e-05
-5.28019e-06
-7.30445e-06
8.2568e-06
-5.43186e-06
-3.82096e-05
-5.94034e-06
-9.09997e-05
-1.20393e-05
8.71042e-06
-1.79796e-05
5.27763e-06
9.52251e-06
-1.2657e-06
4.29988e-05
-7.07396e-05
-2.02601e-05
-0.000191391
-0.000133375
3.09568e-05
1.20421e-05
0.000159434
2.60586e-05
-6.95878e-06
5.69308e-06
4.47798e-06
-7.09449e-06
-9.5387e-07
-7.91263e-06
-6.89931e-07
-6.40455e-06
-3.06579e-06
-2.90355e-05
1.10558e-05
-4.92956e-05
-1.92147e-06
7.1991e-06
9.1344e-06
7.14653e-06
1.20608e-05
-6.36766e-06
2.41029e-05
3.10783e-05
-6.97547e-06
-5.7137e-05
7.84146e-06
1.20903e-08
-7.92472e-06
-6.35553e-06
-2.16037e-06
-4.24419e-06
-1.00851e-05
-1.81135e-06
-6.05553e-06
1.66639e-06
7.46801e-06
9.50789e-06
-3.79664e-06
6.85938e-06
3.34989e-06
1.08179e-05
-9.44894e-07
-5.41064e-06
-7.92032e-06
-8.77049e-06
8.50176e-07
7.37399e-07
7.46799e-07
6.11258e-06
3.67549e-06
-6.79069e-06
-3.29437e-06
-1.22013e-05
-4.13963e-06
-7.43399e-06
5.17965e-07
5.59461e-06
1.13359e-05
1.20733e-05
-1.0944e-05
-1.25731e-06
1.00938e-05
1.97948e-06
1.95507e-06
7.54969e-06
-6.3452e-06
-7.60249e-06
-7.81519e-06
5.8357e-06
)
;

boundaryField
{
    movingWall
    {
        type            calculated;
        value           uniform 0;
    }
    fixedWalls
    {
        type            calculated;
        value           uniform 0;
    }
    frontAndBack
    {
        type            empty;
        value           nonuniform List<scalar> 0();
    }
    defaultFaces
    {
        type            empty;
        value           nonuniform List<scalar> 0();
    }
}


// ************************************************************************* //
