/*--------------------------------*- C++ -*----------------------------------*\
  =========                 |
  \\      /  F ield         | OpenFOAM: The Open Source CFD Toolbox
   \\    /   O peration     | Website:  https://openfoam.org
    \\  /    A nd           | Version:  8
     \\/     M anipulation  |
\*---------------------------------------------------------------------------*/
FoamFile
{
    version     2.0;
    format      ascii;
    class       volVectorField;
    location    "0.033";
    object      U;
}
// * * * * * * * * * * * * * * * * * * * * * * * * * * * * * * * * * * * * * //

dimensions      [0 1 -1 0 0 0 0];

internalField   nonuniform List<vector> 
424
(
(-0.00292732 -0.000186397 6.80123e-26)
(-0.0145693 0.000958634 0)
(-0.0130402 0.00275554 2.04834e-23)
(0.000175745 0.00314024 -1.15861e-24)
(-0.0470565 0.0051187 -2.47915e-23)
(-0.0229125 0.000841681 -3.38693e-23)
(-0.00298031 0.0137613 3.21003e-24)
(-0.000992096 0.0154147 -7.71007e-25)
(-0.0683001 0.00258309 -3.61192e-23)
(-0.0256237 0.000296406 3.10895e-23)
(-0.069925 0.00226741 9.61553e-23)
(-0.0239135 0.000462321 0)
(-0.00516829 0.0499982 1.17905e-24)
(-0.00095991 0.0243406 0)
(-0.0739854 0.000564314 3.30152e-23)
(-0.0254427 -4.08967e-05 1.75068e-23)
(-0.0587157 0.000685625 0)
(-0.0195487 7.77364e-05 0)
(-0.000341144 0.02696 0)
(-0.0026651 0.0727814 -2.78845e-23)
(-0.0729585 4.64099e-05 3.49456e-23)
(-0.0256732 -0.000338346 -1.87501e-23)
(-0.0569938 0.000235999 0)
(-0.019536 5.59396e-05 0)
(1.31391e-05 0.025902 1.30745e-23)
(-0.000177286 0.0776433 2.51634e-23)
(-0.0023186 0.0680829 -3.73969e-23)
(-0.000414974 0.0231988 -3.88273e-23)
(-0.0746117 -0.000330173 5.88498e-23)
(-0.0231017 -0.000844692 0)
(-0.0149471 -0.000965955 -1.31613e-22)
(-0.00303053 0.000211872 0)
(-0.0527521 -1.87506e-05 -1.05672e-22)
(-0.017962 3.83072e-05 9.88142e-23)
(-0.0222783 0.0479271 6.8385e-23)
(0.000239523 0.0266475 0)
(0.000142834 0.0294447 -2.2702e-22)
(0.00335291 0.0630622 2.33872e-22)
(8.21183e-05 0.0742101 2.79594e-23)
(-0.000418557 0.0597805 3.92269e-24)
(-7.10597e-06 0.0198996 -3.85034e-24)
(-0.0695382 -0.0025557 -1.05408e-22)
(-0.0486795 -0.00546039 1.33431e-22)
(-0.0140372 -0.00308669 0)
(0.000219155 -0.00335412 -2.95561e-22)
(-0.0492008 -0.000264851 3.47023e-22)
(-0.016141 -3.35619e-05 0)
(-0.106064 0.152625 -1.89075e-22)
(0.809198 0.0278459 -5.02057e-23)
(-0.000694018 0.0776888 -1.62254e-23)
(-0.00574638 0.0861915 0)
(-0.00509514 0.166544 -3.6156e-24)
(-0.000243409 0.0576197 0)
(-4.42905e-05 0.019817 0)
(-0.00398153 -0.015124 5.94411e-23)
(-0.001252 -0.0169719 2.5847e-22)
(-0.0528364 -0.000625653 0)
(-0.0173928 -0.000154083 0)
(0.405583 0.118713 1.41542e-22)
(0.861289 -0.00378885 -1.19301e-23)
(0.000144161 0.0541663 -9.27729e-23)
(-8.94188e-06 0.018631 8.79386e-23)
(-0.00667349 -0.0540786 0)
(-0.00103769 -0.0266517 0)
(0.551122 0.0128915 1.56604e-22)
(0.882579 -0.00214127 0)
(0.000404598 0.0513331 -7.97978e-23)
(9.82577e-05 0.0173926 7.34329e-23)
(-0.000334517 -0.0291328 6.02579e-23)
(-0.00297019 -0.0785128 -1.85932e-23)
(0.880561 -0.00128629 -1.38112e-23)
(0.625886 0.00205218 -1.16002e-22)
(-0.0022916 0.0555678 0)
(-0.000206513 0.0208901 0)
(7.72987e-05 -0.0287252 4.72706e-23)
(-0.000367481 -0.0829635 1.91026e-23)
(-0.00188581 -0.0655268 -3.96992e-22)
(-0.00034084 -0.0223196 0)
(0.87895 -0.000317233 1.30477e-23)
(0.636503 -0.000764746 -4.92067e-23)
(0.826662 -0.0267524 0)
(0.000337513 -0.0286569 -9.09852e-23)
(0.881618 0.00140752 0)
(0.886569 0.0020437 0)
(0.86575 0.00377247 0)
(-0.0195185 -0.0491074 0)
(0.00355715 -0.0682034 -4.80624e-22)
(0.000171414 -0.0306727 5.9549e-22)
(0.000290771 -0.0816615 4.3652e-23)
(-0.000556062 -0.0573994 0)
(-3.66365e-05 -0.0191463 0)
(0.638687 -0.0007268 -2.08364e-23)
(-0.105089 0.00186295 -4.20255e-23)
(0.447493 -0.115183 9.64635e-22)
(-0.000513997 -0.0834234 -8.91159e-23)
(0.641145 0.00131503 -1.23706e-22)
(0.642698 -0.00138783 2.57336e-22)
(0.56972 -0.0108172 -1.24178e-21)
(-0.108422 -0.153923 -1.80868e-22)
(-0.00646698 -0.179028 7.00869e-22)
(-0.00654822 -0.0899879 -5.6905e-22)
(5.47719e-05 -0.0570051 -3.09686e-23)
(3.50009e-05 -0.0195921 3.00332e-23)
(-0.0935285 5.50221e-05 0)
(-0.0406151 -4.54726e-05 -4.09305e-23)
(0.00038637 -0.0590908 -1.38391e-22)
(6.06811e-05 -0.0203861 -1.31579e-22)
(-0.0959216 -0.000319075 2.40053e-23)
(-0.0339615 5.52743e-06 0)
(-6.34438e-05 -0.0576671 9.95346e-23)
(8.55366e-05 -0.0198516 -9.48878e-23)
(-0.0896284 -0.00014156 -2.48707e-22)
(-0.0352797 -0.000111483 -2.27297e-23)
(-0.00300694 -0.0602436 0)
(-0.000223221 -0.023393 0)
(-0.0826743 0.000301303 1.35923e-22)
(-0.0327698 -6.72172e-05 0)
(-0.0938508 -0.00161265 0)
(-0.0295315 -8.76604e-06 1.21584e-22)
(-0.0351826 -0.000112844 0)
(-0.0791837 0.0169801 2.51335e-24)
(-0.0235158 0.0117653 0)
(-0.0632394 0.0349844 0)
(-0.0120679 0.024726 -1.83486e-24)
(-0.129075 0.106356 2.69248e-23)
(-0.156568 0.0736269 4.76314e-22)
(-0.0858512 0.135212 3.60751e-23)
(-0.10677 0.115832 -1.31892e-23)
(-0.15345 0.0621049 -8.0153e-22)
(-0.158194 0.0370739 -2.63418e-23)
(-0.13563 0.0283584 -7.19335e-22)
(-0.122014 0.028628 -1.92463e-22)
(-0.145355 0.0473963 -6.41562e-22)
(-0.164978 0.0508212 8.37573e-22)
(-0.171857 0.0241696 -5.99368e-22)
(-0.17918 0.0266657 1.0798e-22)
(-0.111244 0.00665381 1.81218e-22)
(-0.164066 0.00734853 1.24323e-21)
(-0.108758 0.00545889 2.62157e-22)
(-0.135248 0.00293426 3.39722e-22)
(-0.0365217 0.0640596 2.96363e-23)
(-0.102931 0.112414 0)
(-0.0712842 0.0675765 -2.4532e-23)
(-0.101132 0.0909143 0)
(-0.0730439 0.137984 5.32076e-23)
(-0.0745799 0.147134 -1.3702e-22)
(-0.0191875 0.0857785 -3.25778e-25)
(-0.0497869 0.163957 2.1945e-22)
(-0.0693152 0.133072 -4.79213e-23)
(-0.0469306 0.156501 2.86635e-22)
(-0.0612114 0.103254 -5.83955e-23)
(-0.09694 0.0917112 -2.76682e-23)
(-0.108116 0.0658167 0)
(-0.0945316 0.035762 1.22301e-22)
(-0.0231576 0.00243101 -2.9874e-22)
(-0.0650764 0.0140625 3.44658e-22)
(-0.15952 0.00866509 0)
(-0.178374 0.00900462 0)
(-0.186809 0.0022069 -8.62543e-22)
(-0.123948 0.000720469 -1.54572e-21)
(-0.180503 0.00213984 2.79892e-21)
(-0.101612 0.0015301 7.08261e-22)
(-0.143535 -0.000257865 7.39335e-22)
(-0.0346649 0.130633 -2.16297e-23)
(-0.0440036 0.152408 2.10692e-23)
(-0.0337067 0.176788 -2.3473e-22)
(-0.00635998 0.117582 7.75866e-22)
(-0.0203564 0.181519 1.15999e-22)
(-0.0258693 0.149789 4.83172e-23)
(-0.0146957 0.16698 -3.00025e-22)
(-0.0333719 0.0885395 1.68125e-22)
(-0.0204993 0.130761 -1.17096e-21)
(-0.0143359 0.0638705 0)
(-0.0024533 0.0227661 0)
(-0.169338 -0.000958489 8.75002e-22)
(-0.186311 -0.000282953 -2.61049e-21)
(-0.126648 0.000705965 -9.19779e-22)
(-0.17769 0.000118611 2.91381e-21)
(-0.09947 -4.59245e-05 -1.15665e-21)
(-0.144379 -0.00044683 1.4383e-21)
(-0.0053156 0.163661 -6.93866e-22)
(-0.00647984 0.181962 5.23153e-22)
(0.00119867 0.127745 0)
(-0.00487433 0.158988 0)
(-0.00168104 0.186417 -1.05482e-21)
(-0.00394524 0.102704 8.00651e-22)
(-0.000377248 0.132464 0)
(-0.169145 0.00214796 8.74216e-22)
(-0.184296 0.00135456 1.97384e-22)
(-0.130649 0.000708046 1.26072e-21)
(-0.176841 -0.0015669 -1.91406e-21)
(-0.182441 -0.00331233 -2.0139e-21)
(-0.0957189 -0.000686284 -2.26876e-21)
(-0.135537 -0.000606468 9.84759e-22)
(0.00377255 0.167637 7.67092e-22)
(0.000862596 0.122 -8.12273e-22)
(-0.000334816 0.180599 2.55951e-21)
(0.00243803 0.186554 -1.97788e-21)
(-0.00065345 0.104424 0)
(0.000623647 0.144965 0)
(-0.161085 -0.00622477 -1.45038e-21)
(-0.18049 -0.00874239 0)
(-0.179062 -0.0272303 1.7652e-21)
(-0.113468 -0.00648563 1.05878e-21)
(-0.169037 -0.0352682 -1.96627e-21)
(-0.169974 -0.0326284 -3.24545e-21)
(-0.153699 -0.0073628 1.9587e-21)
(-0.160047 -0.0240381 1.79044e-21)
(-0.0948682 -0.000733289 -2.94404e-22)
(-0.121901 0.000419818 0)
(-0.000547014 0.167632 -4.27632e-22)
(-0.00392974 0.131792 0)
(0.00111657 0.179269 0)
(-0.000371401 0.184911 3.27146e-22)
(-6.3361e-05 0.0984903 0)
(0.00166639 0.143406 0)
(-0.14759 -0.0649226 0)
(-0.160554 -0.0576568 -2.16153e-21)
(-0.160866 -0.0617234 2.91968e-21)
(-0.133538 -0.0865934 0)
(-0.0781029 -0.0162206 0)
(-0.126635 -0.0275486 -1.22151e-21)
(-0.145593 -0.034976 -2.28568e-21)
(-0.133211 -0.0686393 2.80736e-21)
(-0.145098 -0.0814558 -1.47912e-22)
(-0.0642939 -0.0336917 -7.03169e-22)
(-0.0247251 -0.0118766 0)
(-0.0136978 -0.0255747 2.14836e-21)
(-0.13562 -0.0332127 7.38097e-22)
(-0.139871 -0.0563062 -1.83416e-21)
(-0.0863089 -0.00147068 -1.30018e-21)
(-0.117468 -0.0265286 1.85794e-21)
(-0.116669 -0.0714856 8.61339e-22)
(-0.120259 -0.087714 0)
(-0.103701 -0.101436 1.57272e-21)
(-0.0303504 0.234292 3.19066e-24)
(-0.128496 0.299036 -2.98946e-21)
(-0.141293 0.223665 3.13449e-21)
(0.118421 0.186666 -2.52119e-21)
(-0.0154887 0.170757 1.44054e-21)
(-0.0178453 0.138371 -1.74425e-21)
(-0.0483837 0.206976 -8.93434e-22)
(-0.0168818 0.182602 -3.07605e-21)
(0.000768004 0.175547 -7.88309e-22)
(-0.00789337 0.179861 3.18397e-21)
(0.00109257 0.0935546 0)
(0.00222643 0.133451 2.89989e-22)
(-0.0629827 0.198652 4.23248e-21)
(-0.100367 0.191703 -1.31962e-21)
(-0.106825 -0.118367 4.15186e-21)
(-0.127809 -0.104114 2.47802e-21)
(-0.125105 -0.10599 -3.33205e-21)
(-0.0767643 -0.061644 5.33714e-22)
(-0.0957999 -0.119903 0)
(-0.101499 -0.0860168 2.48018e-22)
(-0.037955 -0.0624851 -3.00284e-21)
(-0.0841814 -0.140383 -5.84316e-21)
(-0.0225177 -0.088237 0)
(-0.0693868 -0.14124 2.05119e-21)
(-0.0493874 -0.158814 0)
(-0.0784498 -0.0272944 3.18162e-21)
(-0.0951969 -0.0616733 0)
(-0.0598709 -0.105401 -4.67101e-21)
(-0.0856563 -0.0940564 1.13912e-21)
(-0.0171899 -0.00144271 1.35974e-21)
(-0.0504422 -0.00943107 -5.47382e-21)
(-0.106045 0.237918 -5.34615e-22)
(-0.128559 0.201911 0)
(0.0095219 0.194641 1.96937e-21)
(-0.136378 0.108536 -1.29752e-21)
(0.264184 0.05722 9.58574e-22)
(-0.0274753 0.178943 2.01738e-21)
(-0.0488775 0.177217 -2.27204e-21)
(-0.00853923 0.149274 -1.66597e-21)
(-0.018814 0.15214 2.87667e-21)
(0.000844632 0.0908222 1.3439e-21)
(-0.00634236 0.117465 -8.89307e-22)
(-0.156243 0.0185709 0)
(-0.108873 0.125151 -1.91643e-21)
(-0.140432 0.0877115 1.08819e-22)
(-0.147339 0.0479708 3.14615e-21)
(-0.0534699 0.136877 -1.22879e-21)
(-0.0856442 0.112949 1.19714e-21)
(-0.0629539 -0.146504 2.2496e-22)
(-0.0624843 -0.161421 5.05534e-22)
(-0.0468686 -0.171744 0)
(-0.0374485 -0.126945 -2.84034e-22)
(-0.0085882 -0.128729 1.90384e-23)
(-0.0278306 -0.177377 -3.58736e-21)
(-0.0305236 -0.153761 1.8381e-21)
(-0.0210691 -0.166387 -2.03111e-21)
(-0.0330069 -0.0920625 3.19171e-21)
(-0.0242711 -0.131231 -2.66003e-21)
(-0.0125287 -0.0606331 0)
(-0.00218761 -0.021276 0)
(-0.0541012 0.0570709 -4.54846e-22)
(-0.115133 0.0267163 1.63402e-21)
(0.104337 0.0604881 -6.68814e-22)
(0.374614 0.0176018 1.67491e-21)
(-0.12436 0.0161416 0)
(-0.17375 0.0105183 0)
(-0.0165097 0.118164 -2.08611e-21)
(-0.0334849 0.113462 0)
(-0.164575 -0.00447062 0)
(-0.161867 0.00183123 0)
(-0.0069586 0.0853772 0)
(-0.00629264 0.0964269 -9.49683e-22)
(-0.123885 0.00491836 0)
(-0.122307 0.0332094 -3.18391e-21)
(-0.0439435 0.0634595 0)
(-0.0827223 0.0675812 0)
(-0.0972512 0.0399862 2.69475e-21)
(-0.150967 -0.0107861 5.67829e-22)
(-0.0118997 -0.181041 2.51258e-21)
(-0.0113035 -0.16639 0)
(0.000249377 -0.134254 -4.01894e-23)
(-0.00723517 -0.158201 0)
(-0.00348937 -0.184806 0)
(-0.00450437 -0.101477 -3.51982e-21)
(-0.00279597 -0.131278 3.21159e-21)
(-0.0454653 0.0166922 0)
(0.123638 0.0123101 -1.38921e-21)
(0.374809 0.00255697 0)
(-0.183806 0.00428553 -4.68686e-22)
(-0.154478 0.00879029 1.20384e-23)
(-0.143241 0.00535578 -2.50637e-22)
(-0.173464 0.00599289 1.30704e-22)
(-0.00442335 0.0309803 5.48736e-21)
(-0.032418 0.0253702 -1.03237e-21)
(-0.0698813 0.0118301 -2.1189e-21)
(-0.0828581 -0.0144133 0)
(-0.0831623 -0.00396647 0)
(0.000287527 0.00901806 1.72145e-21)
(-8.32541e-05 0.0226931 -6.50595e-21)
(-0.0638242 -0.0055972 0)
(0.00200737 -0.173767 -5.44209e-22)
(0.000380949 -0.134043 3.98438e-23)
(-0.00165131 -0.178343 -4.63111e-21)
(0.0012351 -0.186129 4.30745e-21)
(-0.00145947 -0.099171 0)
(0.000231984 -0.142183 -5.3584e-22)
(0.0978594 -0.00266757 0)
(0.362457 -0.00154366 0)
(-0.168119 -0.00190891 4.26851e-22)
(-0.094183 -0.00221226 -3.64467e-22)
(-0.14902 0.000226173 3.31676e-22)
(-0.182993 0.00674486 -5.56075e-22)
(-0.0245968 -0.000861718 0)
(0.131037 -0.186306 -5.76416e-21)
(-0.150244 -0.22677 9.8259e-21)
(-0.000599733 -0.171731 1.67228e-22)
(-0.00341732 -0.136533 0)
(0.000955734 -0.17793 3.94817e-21)
(-0.000646572 -0.184958 -2.87789e-21)
(0.000622311 -0.0964343 0)
(0.0024026 -0.147312 -1.02837e-21)
(0.0897477 -0.00014499 -3.84416e-23)
(0.356931 -0.00327142 -2.09505e-21)
(-0.190314 -0.0031428 -2.13995e-21)
(-0.103256 -0.000206019 -6.25259e-22)
(-0.15224 0.00167894 5.32381e-22)
(-0.19074 -0.00175663 0)
(0.26705 -0.0531937 -6.96103e-21)
(0.0258742 -0.166349 -6.40503e-21)
(-0.0150712 -0.172088 0)
(-0.0192857 -0.142916 0)
(0.130189 -0.0083327 -3.06303e-21)
(0.382348 -0.0156886 2.61031e-21)
(0.128003 -0.0592119 1.15821e-20)
(-0.0543042 -0.211781 0)
(-0.112776 -0.21929 9.19303e-21)
(-0.0351966 -0.250081 1.60197e-21)
(-0.147865 -0.305596 -2.59595e-21)
(-0.0668431 -0.194364 -1.7454e-23)
(-0.0154376 -0.182181 -3.8375e-21)
(0.000217667 -0.176739 1.64998e-21)
(-0.00637111 -0.179503 6.07255e-21)
(0.001172 -0.106048 -3.64486e-21)
(0.000169275 -0.144282 2.36667e-21)
(-0.0492189 -0.0138092 2.45504e-21)
(-0.17065 0.00264952 3.73583e-21)
(-0.16611 -0.00567487 -3.37245e-21)
(-0.144438 7.14686e-05 2.4867e-22)
(-0.175137 -0.000239499 0)
(-0.0627865 -0.0655145 -3.84482e-21)
(-0.148454 -0.172968 -2.63053e-21)
(-0.0449022 -0.174598 -6.38801e-21)
(-0.027205 -0.175876 7.55014e-22)
(-0.127627 -0.0148866 0)
(-0.116117 -0.0282404 -9.96923e-22)
(-0.131 -0.172655 -6.74412e-21)
(-0.0894163 -0.177239 8.70614e-21)
(-0.073941 -0.130045 6.39404e-21)
(-0.0514112 -0.139166 0)
(-0.00748995 -0.14264 0)
(-0.0176781 -0.146868 -2.51025e-21)
(-0.00139646 -0.0986776 0)
(-0.00756634 -0.121058 0)
(-0.187538 0.000158312 2.82062e-21)
(-0.178151 -0.00515769 -5.44125e-21)
(-0.137144 0.0021558 -2.61781e-22)
(-0.169188 -0.00294908 -1.59581e-21)
(-0.15624 -0.0193053 5.16573e-21)
(-0.148417 -0.0735575 -4.4615e-21)
(-0.0185592 -0.116678 1.50515e-21)
(-0.0344718 -0.115449 3.62273e-21)
(-0.174376 0.00463776 4.45976e-21)
(-0.156439 0.00232099 -1.78827e-22)
(-0.0433538 -0.0646061 -8.00837e-21)
(-0.0774183 -0.0778002 3.85531e-22)
(-0.110138 -0.0619697 1.41762e-21)
(-0.00737519 -0.0835377 0)
(-0.00818321 -0.0938941 -2.74677e-21)
(-0.137748 -0.00454277 -2.16189e-21)
(-0.158653 0.0082047 1.53683e-21)
(-0.0884303 0.0168133 1.42644e-21)
(-0.00676192 -0.0280098 0)
(-0.0343413 -0.0210373 3.56515e-21)
(-0.102968 0.0111038 1.6035e-22)
(-0.0937281 -0.00887203 0)
(0.000141851 -0.00951384 0)
(-0.0011683 -0.0227984 0)
(-0.0614996 0.00671414 -3.7461e-21)
(-0.0226742 0.00112917 2.94833e-21)
)
;

boundaryField
{
    movingWall
    {
        type            fixedValue;
        value           uniform (1 0 0);
    }
    fixedWalls
    {
        type            noSlip;
    }
    frontAndBack
    {
        type            empty;
    }
    defaultFaces
    {
        type            empty;
    }
}


// ************************************************************************* //
