/*--------------------------------*- C++ -*----------------------------------*\
  =========                 |
  \\      /  F ield         | OpenFOAM: The Open Source CFD Toolbox
   \\    /   O peration     | Website:  https://openfoam.org
    \\  /    A nd           | Version:  8
     \\/     M anipulation  |
\*---------------------------------------------------------------------------*/
FoamFile
{
    version     2.0;
    format      ascii;
    class       volScalarField;
    location    "0.029";
    object      p;
}
// * * * * * * * * * * * * * * * * * * * * * * * * * * * * * * * * * * * * * //

dimensions      [0 2 -2 0 0 0 0];

internalField   nonuniform List<scalar> 
424
(
-1.53415e-05
0.055425
0.0135594
0.116674
0.095919
0.247629
0.101016
0.0531424
0.277435
0.495172
0.47697
0.489737
0.00982721
-0.151698
0.507734
0.749426
0.507566
0.513178
-0.422402
-0.185162
0.748834
1.00211
0.672344
0.673054
-0.674635
-0.437043
-0.379707
-0.394978
0.988036
1.2688
1.47418
1.53703
0.849959
0.848047
-3.52179
-0.889469
-1.11155
-1.3883
-0.677348
-0.412397
-0.417501
1.23478
1.42813
1.52424
1.41549
1.00695
1.00459
-2.888
-2.65262
-0.887742
-1.12259
-1.18027
-0.577178
-0.578382
1.43289
1.47119
1.02683
1.02308
-2.27069
-1.1286
-0.760166
-0.757867
1.5183
1.67542
-1.05351
-0.622782
-0.947241
-0.946232
1.92501
1.70862
-0.0213582
-0.600027
-1.01456
-1.03878
2.18124
1.93742
1.89642
1.9095
0.727553
0.00780477
4.37547
2.4036
1.47307
2.10429
2.6825
5.25336
2.88389
2.61643
2.17902
1.94221
1.94789
0.732951
-0.386059
3.94737
2.39692
1.45862
2.08192
2.5691
4.53495
2.64007
2.62642
2.1045
2.10524
-0.163003
-0.411844
2.29246
2.29002
0.392602
-0.163364
2.488
2.49269
0.97841
0.392037
2.57621
2.60703
1.55976
0.977372
1.82011
1.55486
1.83821
0.13068
0.0402455
0.0477836
0.0777206
0.0938633
0.165515
-0.0276032
0.0102206
0.223785
0.317045
0.332324
0.151095
0.177138
0.218483
0.335342
0.303218
0.294566
0.444432
0.45983
0.445582
0.0642107
-0.000583
0.0696093
0.0357323
-0.0169993
-0.0628122
-0.0410162
-0.160777
-0.0822731
-0.188787
0.000192238
0.0448296
0.0694651
0.114326
0.304545
0.169836
0.363063
0.35314
0.489686
0.510948
0.583282
0.512644
0.598494
-0.0322359
-0.0343017
-0.186029
-0.203544
-0.232279
-0.266862
-0.271679
-0.0490147
-0.281126
-0.0949878
-0.232146
0.642591
0.638617
0.750659
0.783013
0.678635
0.784088
-0.294196
-0.28218
-0.439529
-0.338973
-0.401324
-0.380114
-0.34899
0.885523
0.884996
0.985565
0.958405
1.05267
0.853581
0.943835
-0.547073
-0.672764
-0.503734
-0.555178
-0.419888
-0.51534
1.13545
1.15023
1.20713
1.21723
1.27433
1.22121
1.10966
1.18336
1.00498
1.08297
-0.789453
-0.88414
-0.696731
-0.77761
-0.58331
-0.700948
1.3254
1.3042
1.3171
1.3549
1.40094
1.38475
1.3813
1.3857
1.39038
1.49647
1.49939
1.44966
1.18537
1.27128
1.03981
1.18605
1.35399
1.38459
1.45399
-1.26563
-1.65521
-2.50237
-2.08948
-1.01876
-1.11756
-1.23138
-1.0191
-0.869149
-0.93665
-0.76486
-0.870887
-1.14745
-1.25569
1.50135
1.44724
1.45802
1.45238
1.51726
1.45738
1.46852
1.51773
1.56237
1.58804
1.68622
1.34037
1.4353
1.5121
1.49492
1.14026
1.26385
-1.48837
-1.41951
-1.63663
-1.23504
-1.08148
-1.10471
-1.14983
-1.00745
-1.07154
-0.943531
-1.0204
-0.855312
-1.19559
-1.10143
-1.07449
-1.11844
-1.22165
1.56597
1.62247
1.6982
1.55637
1.73493
1.72995
1.76129
1.78448
1.56447
1.77261
1.61179
1.73666
-0.819836
-0.724008
-0.942795
-0.595118
-0.698927
-0.564862
-1.09727
-1.10631
-0.746662
-0.757003
-1.02499
-1.12797
-1.03869
-1.07781
-1.24188
-1.17258
-1.05191
-0.753653
1.77559
1.78953
1.94043
1.86788
1.91235
1.88437
1.87196
-0.396237
-0.399929
0.0265588
-0.357326
-0.057295
-0.411285
-0.345237
-1.40129
-1.31475
-1.0831
-1.21523
-1.15751
-1.51238
-1.48667
-1.19851
2.06647
2.18143
2.01488
2.06445
1.94598
2.02928
0.310876
0.737405
0.0736318
0.326844
-0.160727
0.144857
-1.1335
3.71358
4.06541
2.31296
2.39231
2.1885
2.31047
2.11083
2.20079
1.14573
1.45141
0.805326
1.13637
0.416802
0.791774
2.57765
3.13345
2.5336
2.6208
1.88828
2.07505
2.37359
2.73757
3.01001
2.74733
3.21638
2.64914
2.52359
2.40061
2.47251
2.29149
2.39291
1.90328
1.43933
1.52803
0.980705
1.35456
2.28288
2.92072
2.65895
2.62028
2.17808
2.20411
2.79755
2.679
2.70079
2.67869
2.58133
2.59601
2.47896
2.58912
1.79045
2.03679
1.56849
1.77095
2.39629
2.6541
2.62672
2.64332
2.15702
2.3588
2.76814
2.63357
2.67451
2.59496
2.66944
1.84306
2.12155
2.62626
2.97651
2.88709
2.5302
2.56589
3.09604
3.05805
2.63667
2.55628
)
;

boundaryField
{
    movingWall
    {
        type            zeroGradient;
    }
    fixedWalls
    {
        type            zeroGradient;
    }
    frontAndBack
    {
        type            empty;
    }
    defaultFaces
    {
        type            empty;
    }
}


// ************************************************************************* //
