/*--------------------------------*- C++ -*----------------------------------*\
  =========                 |
  \\      /  F ield         | OpenFOAM: The Open Source CFD Toolbox
   \\    /   O peration     | Website:  https://openfoam.org
    \\  /    A nd           | Version:  8
     \\/     M anipulation  |
\*---------------------------------------------------------------------------*/
FoamFile
{
    version     2.0;
    format      ascii;
    class       surfaceScalarField;
    location    "0.029";
    object      phi;
}
// * * * * * * * * * * * * * * * * * * * * * * * * * * * * * * * * * * * * * //

dimensions      [0 3 -1 0 0 0 0];

internalField   nonuniform List<scalar> 
662
(
-2.01285e-05
1.59787e-05
4.15236e-06
2.05491e-05
-4.06775e-05
-8.71652e-05
3.56154e-05
6.75285e-05
-1.71964e-05
2.13488e-05
-0.000150492
8.38758e-05
1.03208e-05
-5.09983e-05
9.27508e-05
-7.43318e-05
-2.23505e-05
4.36992e-05
-0.000179045
3.88742e-05
1.71905e-06
-5.27174e-05
2.16531e-06
-0.000120636
-4.62537e-06
0.000123096
-3.39274e-05
3.60927e-05
0.000162556
-9.21552e-05
5.54065e-05
-1.17073e-05
-0.000182028
4.70125e-06
-7.68337e-07
-5.19491e-05
1.14432e-06
-0.000115824
-5.95603e-06
-3.27831e-05
5.71415e-05
-1.73502e-06
0.000193953
-4.31044e-05
-0.000180034
-2.7624e-06
-2.22895e-06
-4.97201e-05
3.62753e-06
-0.000102326
-1.71254e-05
-2.91556e-05
5.68766e-05
2.649e-07
0.000196704
-4.48669e-06
-1.49718e-06
0.000122139
-0.000122342
1.70045e-06
3.42895e-05
-3.57867e-05
-0.000175579
-6.68308e-06
-4.06488e-05
-9.0713e-06
-2.17117e-05
-1.89371e-05
-1.69786e-05
-4.73314e-06
4.78704e-06
-8.72641e-05
-1.98494e-05
-2.43686e-05
-0.000141302
-0.0007567
0.000898002
6.01413e-05
-3.26468e-06
8.94047e-05
-2.92634e-05
-5.18975e-05
0.000197393
-4.24e-07
-4.29261e-07
0.000119368
3.19968e-06
3.38602e-05
-0.000151554
-3.30972e-05
-9.52855e-05
-7.52051e-05
-4.36077e-05
-6.86564e-05
2.19231e-05
-2.66562e-05
3.41677e-06
-7.60847e-05
-1.45962e-05
-2.09518e-05
-0.000389679
0.000705099
-0.00107212
-0.00095369
0.00185169
0.000214816
-2.06872e-05
0.000291939
-0.000106386
-0.000149638
-3.55639e-06
0.00010588
1.70443e-05
3.03038e-05
-0.000115182
9.34975e-05
2.69726e-05
-5.36288e-05
-2.69829e-07
-3.85419e-07
-7.54294e-05
-2.12216e-05
0.00135388
-0.00160247
-0.000107171
0.00195886
-4.12019e-06
9.19774e-05
1.80231e-05
2.61835e-05
-0.000195734
0.000107525
-6.5275e-05
1.16462e-05
0.00161397
-0.000367259
0.00199233
-3.34706e-05
-2.83039e-06
7.93291e-05
1.54787e-05
2.33531e-05
-6.75879e-05
2.31286e-06
-0.000226249
4.21614e-05
0.00199045
1.88756e-06
0.001709
-0.000128505
-5.44112e-06
2.967e-05
5.51003e-05
1.7912e-05
-6.70045e-05
-5.83395e-07
-0.00023042
6.484e-06
-3.05378e-08
-0.000111244
0.000107839
3.43599e-06
-3.12756e-05
3.1245e-05
0.00196054
2.99051e-05
0.00172929
-1.83991e-05
-0.00180551
0.000950106
0.000855405
-6.75648e-05
5.60283e-07
0.00191641
4.41314e-05
0.00187773
3.86746e-05
7.2223e-05
0.000156498
0.000793608
9.88706e-05
5.76277e-05
3.13058e-05
-0.000231102
9.78249e-08
-4.10533e-07
-0.000111981
1.14691e-06
-3.16861e-05
0.00170975
4.94433e-05
-0.000173052
-7.87373e-06
4.16036e-05
0.000139322
-0.00136286
0.000783164
0.0014351
-0.000242125
1.15841e-05
0.00166927
8.46157e-05
0.00158224
0.000125701
0.000291603
0.000414989
0.00116178
0.000319806
0.000152811
0.000108986
-8.46146e-08
-0.000110896
-9.99712e-07
-3.17707e-05
-0.00018055
-1.51442e-06
9.01231e-06
-5.35609e-05
4.56871e-05
4.62924e-07
-0.000108838
-2.52146e-06
-3.13078e-05
-0.000165299
4.66701e-06
-1.99178e-05
-5.50753e-05
1.63789e-06
-9.87354e-05
-1.17404e-05
-2.96699e-05
-0.000143323
7.23086e-06
-2.92073e-05
-5.04084e-05
7.88268e-06
-4.25282e-05
-6.40898e-05
-2.17872e-05
-0.0001283
4.24407e-06
-1.92673e-05
-4.31776e-05
3.89742e-06
-2.00727e-05
-0.000112124
-3.89335e-05
-3.50361e-05
0.000495541
-0.000411665
-0.000138191
0.00020572
0.000357349
0.000131388
-0.000945672
0.000514212
0.00043146
-0.000531867
-0.000413805
-0.000659774
0.00036719
0.000292584
-0.000145562
-0.000741047
0.00020918
-0.000120233
-0.000620814
-0.00036365
0.000243417
0.000208128
-0.000619793
-0.000635244
0.000843372
-0.00104905
4.08687e-05
-0.000661682
-0.00100818
-0.000580918
-9.976e-05
-0.000561922
-0.000368275
-0.000468035
-0.000410392
0.00054178
-0.000790328
0.00122179
-5.30432e-05
0.000114324
0.00110746
0.000481514
0.000449625
9.80306e-05
0.000383483
0.000418273
-0.000125688
0.000516303
-0.000466224
0.000340536
-0.000611785
-0.000402606
-0.000159189
3.60927e-05
0.000211247
-0.000792165
-0.000796933
-0.00135886
-0.000787464
-5.74215e-05
-0.00130143
-0.000473991
-0.000531413
-0.00023854
0.000688165
0.000868924
0.00125241
0.000645061
0.000238706
0.0010137
0.00040021
0.000116093
0.000638916
0.000182407
0.000158129
0.0002985
3.57867e-05
0.000119609
-0.000907073
-0.00118183
-0.000909835
2.93401e-05
-0.00121117
-0.000548538
-0.000519198
-0.000167939
0.000813
0.000845762
0.000808513
0.000436706
0.00020221
0.00128247
0.0003002
0.000502411
1.33921e-05
-0.000923227
-0.00119777
-0.00092991
-0.00125855
6.07769e-05
-0.00082136
-0.000437191
-0.000539048
-0.000478271
0.000772361
3.61523e-05
0.000771937
0.00129514
-1.26734e-05
0.00133129
0.00050561
0.000492937
-0.000326267
-0.000603643
-0.00114763
-0.000935549
-0.000212078
-0.00063674
-0.000386812
-0.000548737
0.000392494
-0.000604572
-0.000691819
0.000254628
-0.000299325
-0.000492867
-0.000238239
0.000908484
-0.000136548
0.000887797
0.00140595
-7.46594e-05
0.00126941
0.000509981
0.000435322
0.000305251
-0.000454862
0.000149611
-0.00029932
-0.000686133
-0.000133947
-0.000320915
0.000348444
-0.000423649
-0.000288296
-0.000837033
6.02646e-05
-0.000897298
-0.000625868
-0.000126329
-0.000297321
-0.000194985
-0.000101488
-0.000388534
8.92084e-05
-0.000238923
-0.000238624
-0.000149416
-0.00015897
-7.99528e-05
-0.000292917
-0.000132839
-0.000160078
0.00143439
-0.00158402
0.00200466
-0.000570272
0.000932538
-0.000669932
0.000848712
3.90851e-05
0.000742326
-0.000841698
-0.000822766
0.000861851
0.0013356
-6.61956e-05
0.000512835
0.000453345
0.000387149
0.000545984
-0.00138768
0.00138291
-0.000836928
0.000489579
-0.000622418
-0.000168664
-0.000457204
9.92949e-05
-0.000396615
0.000798003
-0.00125521
-0.000498103
-0.000433365
-0.000189052
-0.000390579
-0.000525884
9.25187e-05
2.34825e-05
-0.000549367
-0.000246067
9.66511e-05
-0.000326019
0.000486098
-0.000393579
-2.12216e-05
-0.00224457
0.00167429
-0.000861654
0.00100436
-0.000737291
-0.000124363
0.000637102
0.00123163
-0.000369783
-0.000156049
0.000648713
-0.000135877
0.00027893
0.000402628
0.000266751
0.000525109
-2.32988e-05
-0.000501811
-9.43456e-05
-0.000742582
-0.000831637
-0.000306528
0.00029908
-0.000455129
-0.000443502
-0.000855535
-0.000399672
-0.00104459
-0.00102111
-0.00079025
-0.000748089
-8.42391e-05
-0.000936866
-0.000493566
-5.5801e-05
-0.000577805
-0.000254495
-0.000139084
-0.000310296
-3.1245e-05
-0.000738762
0.000614399
-0.000762061
0.0012515
0.001123
-0.000292267
-0.000469793
0.000491678
-0.000783945
0.000485271
-0.00020634
3.01417e-05
0.00073777
-0.000246091
0.000235959
0.00029642
9.008e-05
0.000343252
-0.000107293
3.67244e-05
0.000223216
-0.000193074
-0.000220286
-0.000183562
-0.000381918
0.000135827
-0.000121167
-0.000815699
-0.000869256
-0.000862772
-0.000438152
-0.000139653
-0.00125385
-0.00030686
-0.000446513
0.000182601
-0.000652394
0.0013056
0.0012872
-0.000444389
-0.000339557
-0.00109678
-0.000340315
-0.000679871
0.000163092
-7.30122e-05
-2.9982e-05
-0.000213544
0.000320837
-0.00018501
1.7912e-05
-4.56871e-05
-0.000917687
5.49152e-05
-0.000917589
-0.00121496
-3.88922e-05
-0.00116004
-0.000445366
-0.000484258
0.00127118
1.60178e-05
0.00132062
-0.00103371
-6.30688e-05
-0.0010177
-0.000670859
-0.000733928
0.00116977
0.000265334
0.00233155
-0.000904348
-1.32411e-05
-0.000892764
-0.00101452
-0.000145521
-0.00102776
-0.000485258
-0.000630778
0.00131479
5.83301e-06
0.00139941
-0.00114984
0.000132139
-0.001144
-0.000753846
-0.000621707
0.00113207
-0.000840465
0.0013974
-0.000890175
-2.58833e-06
-0.000781189
0.00125507
0.000144339
0.00138077
0.000540303
-0.00180473
0.00102354
-0.000679632
0.00207703
-0.00165192
0.00109602
-7.24778e-05
0.000855922
-0.00085851
-0.00123218
0.000204411
-0.000376254
-0.0006333
-0.000428889
0.000641016
-0.000496678
-0.00122182
7.78195e-05
-0.000580806
-0.000650914
-0.000573095
-0.000311804
0.000852107
0.00176523
0.0011538
-5.77812e-05
0.000295288
-0.000854581
0.000357903
-2.47383e-06
0.000767638
0.000997593
0.00069516
0.000436987
0.000258173
0.000379206
-0.000639215
0.000262961
-0.000343927
-0.000440629
-0.000177668
-0.000779366
0.000198561
-0.000421463
-0.000592362
-0.000393801
-0.000600586
0.000598112
0.000397007
-0.000485157
0.000141231
-0.000105952
-0.000639587
0.000218124
-4.14746e-05
-0.000306623
0.000200671
-4.84496e-05
0.000348557
-0.000220196
-7.89654e-05
-0.000413874
-0.000195751
-0.000342911
0.00014716
-0.000164843
8.58771e-05
3.58284e-05
-0.000384386
-2.17872e-05
3.50362e-05
)
;

boundaryField
{
    movingWall
    {
        type            calculated;
        value           uniform 0;
    }
    fixedWalls
    {
        type            calculated;
        value           uniform 0;
    }
    frontAndBack
    {
        type            empty;
        value           nonuniform List<scalar> 0();
    }
    defaultFaces
    {
        type            empty;
        value           nonuniform List<scalar> 0();
    }
}


// ************************************************************************* //
