/*--------------------------------*- C++ -*----------------------------------*\
  =========                 |
  \\      /  F ield         | OpenFOAM: The Open Source CFD Toolbox
   \\    /   O peration     | Website:  https://openfoam.org
    \\  /    A nd           | Version:  8
     \\/     M anipulation  |
\*---------------------------------------------------------------------------*/
FoamFile
{
    version     2.0;
    format      ascii;
    class       surfaceScalarField;
    location    "0.029";
    object      phi;
}
// * * * * * * * * * * * * * * * * * * * * * * * * * * * * * * * * * * * * * //

dimensions      [0 3 -1 0 0 0 0];

internalField   nonuniform List<scalar> 
1107
(
0.000315983
-0.000643362
0.00063348
-0.000306103
0.000616966
-0.000300983
-2.96694e-05
0.000646635
0.000304973
0.000538568
-0.000106644
-0.000736897
-0.000968636
0.000630247
-9.75632e-05
0.000701374
0.000286066
-5.36007e-05
-1.49166e-05
-3.72356e-05
0.000683871
-3.31154e-05
1.43707e-05
-8.78996e-05
0.000180718
-0.000148728
-6.51049e-05
0.000300275
-0.000856455
-0.00126749
0.000599125
-0.000207203
0.000739886
0.000760735
-9.65963e-05
4.16536e-05
0.000814477
-9.53962e-05
3.58573e-06
-4.28158e-05
-1.13309e-05
0.000725525
0.000852411
2.98606e-05
-6.77945e-05
6.44975e-05
-0.000126801
-8.64252e-05
2.51583e-05
-4.85605e-05
0.000227191
-0.000140515
-0.000213476
0.000277758
-0.000115672
0.000296519
-0.000875216
-0.00151019
0.000539222
-0.000365917
0.00075784
0.000828245
-0.000184955
0.000898279
-0.000165431
5.2177e-06
-2.28752e-05
-6.11318e-06
-2.20863e-05
0.000864231
1.02668e-05
0.000755385
0.000944753
-0.000114269
0.000961712
-3.90447e-05
0.000950032
-2.39321e-05
3.56119e-05
3.53586e-05
-7.26596e-05
-4.91242e-05
1.36047e-05
-2.68066e-05
-8.22359e-05
-0.000130939
0.000321786
-0.000214736
-0.000320526
0.000396958
-0.000190844
0.000306547
-0.000784805
0.00045936
-0.001663
-0.000569236
0.000742541
0.000879883
-0.000306997
0.000966703
-0.000252251
2.99424e-06
-1.22647e-05
-3.11894e-06
8.77936e-05
0.000915298
-5.30592e-05
0.000852624
-1.23255e-05
0.000765652
0.00102354
-0.000171105
0.0010473
-6.28011e-05
0.00103634
4.65657e-05
0.000996507
0.000127628
-0.000117776
0.000930677
0.000183606
5.73262e-05
-0.000103961
-3.56015e-05
2.75473e-05
-1.93452e-05
1.03935e-05
-9.65276e-06
-0.000129452
-0.000216223
-6.17876e-05
-0.000171625
0.000689836
-0.000799712
0.000900611
-0.000465068
0.00100799
-0.000359626
2.20413e-06
-4.07537e-06
-9.14815e-07
0.0008645
-6.69782e-05
0.000823203
-2.36383e-05
0.000753327
0.00082154
-0.000146645
0.000255782
0.00107534
-0.000238457
0.00110546
-9.29197e-05
0.00109694
5.50798e-05
0.00105341
0.00017116
0.000970845
0.000266171
4.55473e-05
-3.05696e-05
-7.67653e-05
2.43921e-05
-1.44464e-05
1.1448e-05
-6.40115e-06
4.27334e-06
-2.47806e-06
0.000874507
-0.000649739
0.0010007
-0.000485822
8.81682e-07
-6.83727e-07
-3.31318e-08
0.000332988
0.00066932
-0.000180768
0.000789927
-7.2071e-05
0.000785098
-2.88729e-05
0.000729688
0.00082491
0.000401717
0.000621378
0.00053652
0.000387694
-0.00129426
0.00152795
0.00107789
-0.000315648
0.00111628
-0.00013131
0.00111476
5.6606e-05
0.00107016
0.00021576
0.00096937
0.000366959
-3.57536e-05
-5.56172e-05
6.08013e-05
-1.92215e-05
-3.09785e-05
-9.07705e-06
-1.65456e-05
-3.37662e-06
-8.17849e-06
-6.7041e-07
-3.38994e-06
-7.03536e-07
0.000989403
0.000344167
-0.000945877
0.000371241
-0.000996182
0.000687708
-7.855e-05
0.000738808
-2.57811e-05
0.000700815
0.000789607
0.000581481
0.000545256
0.00078087
0.000410625
0.00166258
0.000481161
0.000918867
-5.74048e-05
-9.48406e-05
9.66281e-05
-3.10942e-05
-5.7289e-05
-1.46834e-05
-3.29564e-05
-5.43816e-06
-1.74237e-05
-1.08937e-06
-7.73872e-06
-1.79291e-06
0.000103639
0.000298436
-5.79074e-05
0.000227096
-0.000801732
0.000357702
-0.000666176
0.000680737
-2.04793e-05
0.000675034
0.000412271
0.000172528
-4.38797e-05
-0.000124185
7.3224e-05
-2.41391e-05
-7.70297e-05
-1.16236e-05
-4.54719e-05
-4.42509e-06
-2.46222e-05
-9.60539e-07
-1.12033e-05
-2.75345e-06
0.000247989
0.000200069
-0.000149622
0.000200035
-3.08465e-05
0.000135899
-0.000579929
0.000342965
-0.000328405
0.000654555
0.000293129
0.000367131
-1.41147e-05
-0.000132589
2.25193e-05
-8.02025e-06
-8.31241e-05
-3.97851e-06
-4.95136e-05
-1.60074e-06
-2.7e-05
-3.92631e-07
-1.24114e-05
-3.14608e-06
0.000149976
0.000133646
-8.35527e-05
0.000127365
-7.69517e-05
0.000120294
-1.52409e-05
6.98681e-05
-0.000306832
0.00032615
0.000197472
0.000245632
1.43175e-05
-0.00012074
-2.61672e-05
7.29242e-06
-7.6099e-05
3.25763e-06
-4.54788e-05
1.15211e-06
-2.48945e-05
1.87298e-07
-1.14466e-05
-2.95878e-06
0.000128175
7.68863e-05
-7.1415e-05
8.4273e-05
-4.04608e-05
7.32541e-05
-2.99121e-05
5.90414e-05
-4.41428e-06
1.93183e-05
0.000116806
0.000208841
-8.67711e-05
5.85525e-05
0.000145025
1.64282e-05
-3.59644e-05
-0.000101204
7.70479e-06
-6.73755e-05
3.30329e-06
-4.10773e-05
1.19204e-06
-2.27832e-05
2.29975e-07
-1.04845e-05
-2.72881e-06
3.76307e-05
-4.75155e-05
4.74182e-05
-3.45602e-05
4.8112e-05
-1.53187e-05
3.49978e-05
-5.86854e-06
1.4904e-05
-5.03076e-05
2.3964e-05
8.48961e-05
-3.11096e-05
5.62612e-05
-6.6229e-05
-1.22601e-05
-4.16327e-05
-2.75065e-06
-1.99939e-05
-5.47948e-06
1.45656e-05
-2.72425e-05
2.26324e-05
-2.27297e-05
2.65802e-05
-1.30285e-05
2.27659e-05
-3.08672e-06
9.03548e-06
5.68798e-06
-2.47816e-05
4.30577e-05
-2.29417e-06
6.62765e-06
7.14988e-06
-1.14834e-05
-1.26567e-05
5.46138e-05
-6.19511e-05
-1.81362e-05
-9.97719e-07
-8.10124e-06
1.47869e-05
2.88304e-06
-1.30991e-05
8.2856e-06
-1.28957e-05
1.23928e-05
-8.5423e-06
1.24206e-05
-2.68312e-06
5.94876e-06
1.05586e-06
4.01161e-06
-7.36164e-06
-6.75103e-07
3.24463e-06
4.05815e-06
-1.88999e-06
8.16417e-06
-1.62328e-05
9.95866e-06
-2.38955e-06
-7.53234e-07
2.14506e-06
-1.16326e-06
-4.0549e-06
1.26457e-06
-6.07804e-06
4.30065e-06
-4.80354e-06
5.67854e-06
-1.80026e-06
3.26565e-06
2.84461e-06
1.55002e-06
-3.33876e-06
1.32081e-06
2.01572e-06
-1.05791e-08
1.36522e-06
-7.64998e-07
2.93447e-06
5.9947e-06
-2.60275e-06
4.64913e-06
-2.30944e-05
2.1048e-05
-1.75853e-06
1.67511e-06
-2.30612e-06
-1.77622e-06
-1.40272e-07
-1.01602e-06
-1.77432e-06
4.55078e-07
-2.23247e-06
1.87829e-06
-1.0033e-06
1.46538e-06
3.2148e-06
-2.36238e-07
-1.33954e-07
2.22192e-06
6.48896e-07
1.10905e-06
8.9608e-07
1.66621e-07
4.33591e-07
-2.11854e-07
5.43572e-07
-5.65275e-07
5.21441e-06
-1.00831e-06
1.42826e-06
-2.17848e-06
-1.16058e-06
1.05945e-06
-1.20254e-06
4.62501e-08
-7.10725e-07
-6.08519e-07
1.07697e-07
-4.6187e-07
4.62087e-07
2.29704e-06
-1.90719e-06
2.82495e-06
2.25226e-06
-2.66544e-07
1.5275e-06
2.30447e-07
7.50256e-07
3.12443e-07
1.44817e-07
7.69149e-08
-2.17072e-08
-1.38699e-06
-7.77711e-07
1.15639e-06
-5.60626e-07
8.28286e-07
-7.06455e-07
5.63368e-07
-7.1998e-07
5.55045e-08
-3.87379e-07
-1.13443e-07
2.1667e-10
1.29076e-06
-1.73491e-06
2.74119e-06
1.48284e-06
-1.13773e-06
1.44149e-06
-1.80535e-07
9.21811e-07
5.88903e-08
3.98508e-07
5.87492e-08
5.52057e-08
-2.01452e-06
-1.13678e-06
1.76431e-06
-8.72249e-07
-4.66098e-07
-2.90813e-07
4.12641e-07
-3.86599e-07
2.29987e-07
-3.5333e-07
2.14554e-08
-1.13228e-07
1.82315e-06
1.06899e-06
-1.60137e-06
7.29394e-07
-9.81434e-07
8.81542e-07
-5.77771e-07
8.26479e-07
-8.51995e-08
4.52766e-07
4.63141e-09
1.13956e-07
-2.40118e-06
-6.29848e-07
1.01651e-06
-1.34674e-06
-6.62295e-07
-5.13988e-07
-2.42924e-07
-1.34114e-07
1.60154e-07
-1.75001e-07
5.16577e-08
-9.17734e-08
-2.3491e-06
1.12401e-07
-1.64482e-07
1.03896e-06
-1.5649e-06
1.15608e-06
6.42321e-07
3.81884e-07
-4.81767e-07
4.7479e-07
-2.26077e-07
3.90335e-07
-2.27671e-08
1.1859e-07
-1.61824e-06
-3.58332e-07
-8.42597e-07
-3.33684e-07
-2.76636e-07
-1.00401e-07
-4.81842e-08
3.33369e-08
-4.01157e-08
-1.5769e-06
7.10899e-08
6.18162e-07
6.88921e-07
3.35288e-07
1.78342e-07
-1.85314e-07
2.12468e-07
-4.82077e-08
9.58257e-08
-1.0224e-06
-1.78521e-07
-4.78472e-07
-1.31846e-07
-1.25149e-07
-2.34361e-08
-6.77833e-09
-9.90416e-07
3.91047e-08
3.1667e-07
3.75042e-07
1.38591e-07
6.52589e-08
-3.81008e-08
4.76191e-08
-5.85951e-07
-7.10385e-08
-2.2726e-07
-2.97333e-08
-3.02136e-08
-5.6456e-07
1.77155e-08
1.27154e-07
1.71393e-07
3.24594e-08
9.51844e-09
-2.81638e-07
-1.6658e-08
-5.99459e-08
-2.69143e-07
5.22132e-09
2.94045e-08
4.19776e-08
-7.66032e-08
-7.13822e-08
0.000596598
-0.0013814
-0.0010664
0.000321891
-0.000538115
0.000858913
-0.000537022
0.000538387
0.00130317
-0.000764784
0.00111233
-0.000269076
0.00156787
-0.00183694
0.000501463
-0.000298249
-0.00139089
0.000626106
0.00013871
-0.000310334
-0.000399405
4.43248e-05
-0.00012109
-0.000266009
0.000328726
-0.000728131
0.00117223
-0.000843506
0.00063521
-0.00075568
0.0020681
-0.00144199
0.000231157
0.00130449
-0.00107333
0.00100624
0.0003565
0.0010118
-0.00176748
-0.000430192
-6.02888e-05
0.000229139
-0.000289428
-3.68706e-05
-0.000765001
-6.87484e-05
-0.000696253
0.00136254
-0.00143129
0.000519037
-0.00124844
0.00141516
-0.00184535
0.00034183
0.000879801
-0.000537971
-0.0012363
0.000750478
-0.00136461
0.00104897
-0.000614135
0.000970302
-0.00221875
-0.000875051
0.000857116
0.000805462
0.00177598
-0.000407919
0.0009894
-0.0014722
0.00134089
-0.000423235
-0.00114784
0.000739916
-0.000780877
-0.00130427
0.00136088
3.66183e-05
-0.00127555
0.000494671
-0.00105979
0.00030109
-0.000192799
0.000130746
-0.000323545
-0.000565507
0.00027515
-0.000840657
-0.00115614
0.000189634
-0.00134578
-0.00202911
0.00111823
-0.00199328
-0.00058026
-3.38749e-05
-0.000638926
0.000215692
-0.000672801
-4.6468e-05
-0.00198264
-0.00203975
-0.000890534
0.001696
-0.000109664
0.000879736
0.000288456
0.00148753
0.00198445
0.00166006
-6.98131e-06
0.000886718
-0.000985848
0.000978867
-0.000245932
-0.000543233
0.000579851
-0.000327541
-0.000935436
0.000689505
-0.000440765
-0.000765109
0.000324344
-0.000464018
0.000115833
-0.000250321
7.8765e-05
-0.000329086
-0.000761892
3.03596e-05
-0.000792252
-0.00131542
-0.000356312
-0.000959104
-0.00233896
0.000913711
-0.00124125
0.00024091
-0.00179884
-0.00145094
0.000209684
0.000928075
-0.00272691
-0.00141088
0.000557539
0.00142691
0.00144426
-0.000996056
0.00136319
0.000663999
0.00209091
0.000124577
0.00131968
0.00110344
7.88886e-05
0.00102456
0.000768393
0.000268351
0.000500042
0.000592695
0.000708528
-0.000742409
-0.000306567
7.95371e-06
-0.000314521
-0.000784298
-0.000348646
-0.000435652
-0.00130775
-0.000424935
-0.000882816
-0.00183582
0.00202023
-0.00181055
-0.000706683
0.00173271
-0.00247512
-7.78398e-05
0.00127808
-0.00198476
-0.000557741
-0.000603466
0.000849098
0.000759722
-0.00118305
0.00194277
0.000907866
0.00222754
0.00143392
0.000793626
0.00245847
0.00295852
-0.000633379
0.00202934
-0.00139596
0.00310849
-0.000149978
-0.000340688
0.000558294
-0.00111604
-9.45212e-05
-0.000246167
-0.000530173
-0.000119771
-0.000410402
-0.00100259
-0.000444292
0.00178889
0.000240446
-0.00171105
-0.000273708
-0.000710242
0.000950688
-0.000959221
-0.000156815
0.000640757
-0.000914464
-0.000318464
-0.00114679
0.000436544
-0.000314954
0.000523795
0.000534143
2.37888e-05
-0.00058547
0.000561681
-0.001123
-0.000119299
0.000337878
-0.000218579
-0.000704769
-0.000675811
0.00120995
0.00126696
0.00206058
-0.000338507
-0.00078449
-0.00173447
0.00120694
0.000853641
0.00105696
-0.000677501
-0.000282131
0.000388607
-0.000545421
-0.000663137
0.000218845
-0.000274531
-0.00012491
-0.000157221
-0.000535312
-0.000316468
-0.00123223
0.000317766
-0.000281543
-0.000591934
0.000310391
-0.00015539
-0.000494307
-5.11139e-05
0.000812771
-0.000495005
-0.000655717
0.000500326
-9.40352e-05
0.000356708
-1.88301e-05
0.000262673
-0.000212159
0.000193329
1.69939e-05
0.000139642
-0.000156636
-0.000195165
-0.000413744
-0.000249326
-0.000164418
-0.000109183
0.000254207
0.000414612
-0.000140814
0.000555426
0.00106914
0.00030625
-0.000555576
-0.000398519
-0.00118301
0.000469022
0.000600119
-0.000645162
-0.000537847
0.00132266
-2.25359e-05
0.000107432
0.000231672
0.000112318
-0.000269538
-1.11144e-05
-0.000456544
0.000182014
-0.000507658
-9.98952e-05
-0.000169643
-0.000416363
-0.000234349
0.000468989
3.13375e-05
-0.00077938
0.000284376
-0.000519474
1.18159e-05
-0.000235098
-0.000290966
0.000322303
-0.000336014
4.50478e-05
-7.33409e-05
-0.000230927
0.000157586
-3.75976e-05
-0.000127623
9.00257e-05
1.20191e-05
5.02482e-06
2.38746e-05
-2.88994e-05
1.21748e-05
-2.29582e-05
4.68328e-05
6.7674e-05
-9.06322e-05
7.96931e-05
-4.45848e-05
-4.60474e-05
-0.000201221
-2.27519e-05
-6.1475e-06
-6.87993e-05
-1.76308e-05
-9.7133e-05
-0.000104088
-0.000261551
-9.86357e-05
-0.000162915
-0.000654212
-9.23395e-05
0.000324011
0.000463086
0.00106321
-0.000424657
-0.000229555
0.000962504
0.000100701
1.58124e-05
2.72453e-05
0.000123244
4.20962e-05
8.11482e-05
0.000366107
5.32478e-05
-0.000222891
1.29812e-05
-7.24792e-05
-0.000150412
-0.000306828
-0.000295013
-0.000229425
-6.55879e-05
-0.000464523
-0.00014222
0.00018581
-2.82246e-05
-0.000230858
8.86386e-05
5.16907e-05
2.80023e-05
0.000141716
0.000113492
3.96918e-05
7.14104e-06
6.76942e-05
1.70997e-05
-4.62539e-05
-2.25454e-05
-0.000150342
-2.12199e-05
3.58906e-06
-4.37653e-05
-3.77257e-06
1.30389e-05
1.74804e-06
4.02842e-05
-9.69124e-05
-5.34296e-05
-0.000259828
-0.000139733
-0.000120094
-0.000369288
0.000325106
4.10014e-05
0.000425807
5.65195e-05
5.54359e-06
3.47407e-05
8.66918e-05
0.000127693
9.39566e-05
-2.62624e-05
0.000207448
-0.000230499
8.00872e-05
-0.000296087
-1.81362e-05
-5.21441e-06
-6.87488e-06
8.62293e-06
-4.72981e-06
-3.6616e-05
-7.14922e-06
-9.00456e-05
-1.17044e-05
7.93183e-06
-1.88536e-05
4.59307e-06
8.32826e-06
2.94673e-07
4.30689e-05
-6.80383e-05
-2.20073e-05
-0.000188133
-0.000131613
2.9473e-05
1.35959e-05
0.000157166
2.5553e-05
-6.09483e-06
6.3895e-06
4.13438e-06
-6.44051e-06
-5.95442e-07
-6.69028e-06
-6.51815e-07
-5.7887e-06
-2.83032e-06
-2.84917e-05
9.63809e-06
-5.0499e-05
-2.10331e-06
6.69637e-06
7.5348e-06
6.56248e-06
1.15081e-05
-5.11864e-06
2.5104e-05
3.1814e-05
-6.70999e-06
-5.7367e-05
6.86798e-06
3.02393e-07
-6.99267e-06
-4.81627e-06
-1.93445e-06
-3.85426e-06
-8.92714e-06
-1.67394e-06
-5.5282e-06
7.57163e-07
6.77764e-06
7.62513e-06
-3.55327e-06
6.37827e-06
3.00922e-06
9.78685e-06
2.04627e-07
-5.0209e-06
-6.50539e-06
-7.0942e-06
5.88807e-07
5.3092e-07
7.07395e-07
5.67088e-06
3.44862e-06
-5.90333e-06
-3.02381e-06
-1.09242e-05
-3.76389e-06
-6.78772e-06
5.12427e-07
5.15846e-06
1.02993e-05
1.08302e-05
-9.69918e-06
-1.22506e-06
9.11037e-06
1.71983e-06
1.84728e-06
7.00574e-06
-5.77118e-06
-6.99625e-06
-7.16069e-06
5.44087e-06
)
;

boundaryField
{
    movingWall
    {
        type            calculated;
        value           uniform 0;
    }
    fixedWalls
    {
        type            calculated;
        value           uniform 0;
    }
    frontAndBack
    {
        type            empty;
        value           nonuniform List<scalar> 0();
    }
    defaultFaces
    {
        type            empty;
        value           nonuniform List<scalar> 0();
    }
}


// ************************************************************************* //
