/*--------------------------------*- C++ -*----------------------------------*\
  =========                 |
  \\      /  F ield         | OpenFOAM: The Open Source CFD Toolbox
   \\    /   O peration     | Website:  https://openfoam.org
    \\  /    A nd           | Version:  8
     \\/     M anipulation  |
\*---------------------------------------------------------------------------*/
FoamFile
{
    version     2.0;
    format      ascii;
    class       volVectorField;
    location    "0.029";
    object      U;
}
// * * * * * * * * * * * * * * * * * * * * * * * * * * * * * * * * * * * * * //

dimensions      [0 1 -1 0 0 0 0];

internalField   nonuniform List<vector> 
424
(
(-0.00292037 -0.000183565 6.79137e-26)
(-0.0145048 0.000956332 0)
(-0.0129917 0.002746 2.05011e-23)
(0.000172718 0.0031318 -1.15198e-24)
(-0.0468235 0.00509626 -2.48108e-23)
(-0.0228086 0.000839449 -3.38619e-23)
(-0.00296934 0.0137075 3.19076e-24)
(-0.000989549 0.0153435 -7.53185e-25)
(-0.0679581 0.002574 -3.61095e-23)
(-0.0255126 0.000296098 3.10827e-23)
(-0.0696123 0.00225534 9.59804e-23)
(-0.0238158 0.000459462 0)
(-0.00514531 0.0497428 1.18808e-24)
(-0.000956992 0.0242251 0)
(-0.0736287 0.000563928 3.30063e-23)
(-0.025334 -4.0976e-05 1.75035e-23)
(-0.0584542 0.000682829 0)
(-0.0194707 7.7455e-05 0)
(-0.000340961 0.0268397 0)
(-0.00265586 0.0724043 -2.79168e-23)
(-0.0726102 4.50819e-05 3.49386e-23)
(-0.0255576 -0.00033814 -1.87465e-23)
(-0.056738 0.000235614 0)
(-0.0194564 5.58867e-05 0)
(1.30976e-05 0.025791 1.30785e-23)
(-0.000180929 0.0772596 2.51925e-23)
(-0.0023068 0.067794 -3.73444e-23)
(-0.000412424 0.0231115 -3.87679e-23)
(-0.0742414 -0.000332492 5.88306e-23)
(-0.0229926 -0.000842103 0)
(-0.0148796 -0.00096325 -1.31546e-22)
(-0.00302404 0.000208866 0)
(-0.0525169 -1.83948e-05 -1.05658e-22)
(-0.017889 3.83508e-05 9.88017e-23)
(-0.0222736 0.0479247 6.83874e-23)
(0.00023925 0.0265279 0)
(0.000140457 0.0293326 -2.26984e-22)
(0.00335459 0.0629973 2.33834e-22)
(8.18477e-05 0.0738544 2.79673e-23)
(-0.000417934 0.0595188 3.92272e-24)
(-7.36435e-06 0.0198221 -3.85038e-24)
(-0.0691804 -0.00254562 -1.05379e-22)
(-0.0484353 -0.00543406 1.33363e-22)
(-0.0139859 -0.00307511 0)
(0.000215308 -0.00334627 -2.95593e-22)
(-0.0489866 -0.000264399 3.47041e-22)
(-0.0160772 -3.34212e-05 0)
(-0.106077 0.152584 -1.89084e-22)
(0.809194 0.0278492 -5.02216e-23)
(-0.000692314 0.0773069 -1.62295e-23)
(-0.00575852 0.0858272 0)
(-0.00511198 0.166305 -3.61535e-24)
(-0.00024256 0.0573655 0)
(-4.42152e-05 0.0197381 0)
(-0.00396674 -0.0150661 5.94432e-23)
(-0.00124853 -0.016896 2.58503e-22)
(-0.0526176 -0.000622786 0)
(-0.0173279 -0.000153206 0)
(0.405538 0.118701 1.41588e-22)
(0.86122 -0.00378912 -1.19407e-23)
(0.000143764 0.0539337 -9.28067e-23)
(-8.97635e-06 0.0185591 8.79706e-23)
(-0.0066431 -0.0538064 0)
(-0.00103456 -0.0265283 0)
(0.550874 0.0128687 1.56738e-22)
(0.882461 -0.00214272 0)
(0.000401877 0.0511169 -7.98356e-23)
(9.78642e-05 0.0173279 7.34676e-23)
(-0.000334046 -0.0290048 6.02527e-23)
(-0.00296033 -0.0781095 -1.85918e-23)
(0.880439 -0.00128657 -1.3798e-23)
(0.625503 0.00204498 -1.16068e-22)
(-0.00229589 0.0553244 0)
(-0.000207935 0.020816 0)
(7.74045e-05 -0.0285988 4.7266e-23)
(-0.000368435 -0.0825549 1.91008e-23)
(-0.0018752 -0.0652343 -3.96823e-22)
(-0.000338736 -0.0222282 0)
(0.878836 -0.000317326 1.30352e-23)
(0.636112 -0.000762118 -4.92753e-23)
(0.82665 -0.0267552 0)
(0.000336971 -0.0285257 -9.09768e-23)
(0.881498 0.0014076 0)
(0.886458 0.0020448 0)
(0.865679 0.00377227 0)
(-0.0195158 -0.0490936 0)
(0.00355902 -0.0681229 -4.80503e-22)
(0.000168719 -0.0305469 5.95346e-22)
(0.000290869 -0.0812592 4.36475e-23)
(-0.000553116 -0.0571437 0)
(-3.64258e-05 -0.0190695 0)
(0.638322 -0.000727161 -2.08298e-23)
(-0.105365 0.00185825 -4.20059e-23)
(0.447422 -0.115172 9.64596e-22)
(-0.00051081 -0.0830066 -8.91073e-23)
(0.640762 0.00131285 -1.2369e-22)
(0.642333 -0.00138094 2.57298e-22)
(0.569466 -0.0107996 -1.24173e-21)
(-0.108439 -0.15385 -1.8084e-22)
(-0.00648173 -0.178745 7.00723e-22)
(-0.00655845 -0.0895779 -5.68929e-22)
(5.43564e-05 -0.056752 -3.09649e-23)
(3.4848e-05 -0.0195134 3.00296e-23)
(-0.0937803 5.27371e-05 0)
(-0.0406989 -4.70813e-05 -4.08975e-23)
(0.000385452 -0.0588287 -1.38383e-22)
(6.05263e-05 -0.0203044 -1.31571e-22)
(-0.0961642 -0.000319758 2.39904e-23)
(-0.0340376 4.93739e-06 0)
(-6.30809e-05 -0.0574228 9.95332e-23)
(8.55272e-05 -0.019778 -9.48864e-23)
(-0.0898498 -0.00014146 -2.4861e-22)
(-0.0353551 -0.000111662 -2.27156e-23)
(-0.00301386 -0.0599772 0)
(-0.000225471 -0.0233107 0)
(-0.0828831 0.000303627 1.35874e-22)
(-0.0328383 -6.72455e-05 0)
(-0.0940818 -0.00160791 0)
(-0.0295941 -8.32496e-06 1.2154e-22)
(-0.0352527 -0.000111418 0)
(-0.0787558 0.0168834 2.5136e-24)
(-0.0234064 0.0117008 0)
(-0.0628951 0.0347876 0)
(-0.0120001 0.0246071 -1.82355e-24)
(-0.128372 0.105789 2.68262e-23)
(-0.15571 0.0732401 4.75664e-22)
(-0.0854084 0.134514 3.61225e-23)
(-0.106218 0.115242 -1.30984e-23)
(-0.15264 0.0617885 -8.00442e-22)
(-0.157363 0.0368873 -2.63022e-23)
(-0.134951 0.0282176 -7.18337e-22)
(-0.121322 0.0284696 -1.92389e-22)
(-0.144504 0.0471286 -6.40614e-22)
(-0.164031 0.050543 8.36362e-22)
(-0.170915 0.0240521 -5.9876e-22)
(-0.178158 0.0265437 1.0788e-22)
(-0.110643 0.00661882 1.81149e-22)
(-0.163173 0.00731093 1.24196e-21)
(-0.108233 0.00543218 2.61773e-22)
(-0.134547 0.00291701 3.39404e-22)
(-0.0363085 0.0637108 2.94293e-23)
(-0.102333 0.111773 0)
(-0.070863 0.0671782 -2.43607e-23)
(-0.100531 0.0903837 0)
(-0.0726343 0.137195 5.33724e-23)
(-0.0741853 0.146345 -1.37444e-22)
(-0.0190713 0.0853041 -3.4851e-25)
(-0.049528 0.163081 2.19418e-22)
(-0.0689689 0.132412 -4.79844e-23)
(-0.0466896 0.155699 2.86387e-22)
(-0.0609155 0.102782 -5.89831e-23)
(-0.0964845 0.0912842 -2.76108e-23)
(-0.107611 0.0655075 0)
(-0.0940965 0.0355914 1.22204e-22)
(-0.0230554 0.00241818 -2.98311e-22)
(-0.0647828 0.0139925 3.44164e-22)
(-0.158608 0.00863129 0)
(-0.177333 0.00897464 0)
(-0.185754 0.00220301 -8.61684e-22)
(-0.123297 0.000718624 -1.54516e-21)
(-0.179479 0.00214765 2.79768e-21)
(-0.101116 0.00152394 7.07846e-22)
(-0.142768 -0.000256346 7.39124e-22)
(-0.0344641 0.129875 -2.20241e-23)
(-0.0437562 0.151515 2.14534e-23)
(-0.0335324 0.175796 -2.34768e-22)
(-0.00632759 0.116933 7.76821e-22)
(-0.0202643 0.180497 1.16047e-22)
(-0.0257374 0.149032 4.83992e-23)
(-0.0146261 0.166083 -2.99896e-22)
(-0.0332114 0.0881428 1.68742e-22)
(-0.0203987 0.130124 -1.1697e-21)
(-0.0142646 0.0635906 0)
(-0.00244039 0.0226693 0)
(-0.168371 -0.000950593 8.74672e-22)
(-0.185223 -0.000271387 -2.60945e-21)
(-0.125983 0.0007018 -9.1962e-22)
(-0.176682 0.000119142 2.91331e-21)
(-0.0989811 -4.56582e-05 -1.15618e-21)
(-0.143601 -0.000446291 1.43806e-21)
(-0.00530299 0.16272 -6.9472e-22)
(-0.00646425 0.180903 5.23232e-22)
(0.00118648 0.127061 0)
(-0.00485214 0.158138 0)
(-0.00168244 0.185368 -1.05492e-21)
(-0.00392704 0.102225 7.9967e-22)
(-0.000378236 0.131791 0)
(-0.168182 0.00212442 8.74065e-22)
(-0.183226 0.00133401 1.97593e-22)
(-0.129946 0.000701285 1.2605e-21)
(-0.175853 -0.00157525 -1.914e-21)
(-0.181419 -0.00330543 -2.01398e-21)
(-0.0952516 -0.000685874 -2.26849e-21)
(-0.134832 -0.000609431 9.84717e-22)
(0.00374101 0.166686 7.67295e-22)
(0.000861171 0.121361 -8.12489e-22)
(-0.000351995 0.179577 2.55971e-21)
(0.0024052 0.185472 -1.97805e-21)
(-0.000654534 0.103919 0)
(0.000620067 0.144191 0)
(-0.160166 -0.00620465 -1.45013e-21)
(-0.179448 -0.00871369 0)
(-0.178051 -0.0270938 1.76511e-21)
(-0.112846 -0.00645193 1.05838e-21)
(-0.168068 -0.035074 -1.96615e-21)
(-0.169054 -0.0324587 -3.24544e-21)
(-0.152893 -0.00732805 1.95878e-21)
(-0.15921 -0.0239162 1.79044e-21)
(-0.0944157 -0.000735351 -2.9442e-22)
(-0.121297 0.000413772 0)
(-0.000528101 0.166664 -4.27803e-22)
(-0.0039244 0.131088 0)
(0.0011033 0.178252 0)
(-0.000363799 0.183829 3.27276e-22)
(-6.17667e-05 0.0980122 0)
(0.00166328 0.14264 0)
(-0.146831 -0.0645965 0)
(-0.159689 -0.057359 -2.1614e-21)
(-0.159971 -0.0613895 2.91951e-21)
(-0.13286 -0.0861543 0)
(-0.0776805 -0.0161255 0)
(-0.125907 -0.0273935 -1.22105e-21)
(-0.144739 -0.0347804 -2.28513e-21)
(-0.132439 -0.068243 2.80661e-21)
(-0.144282 -0.0810069 -1.47897e-22)
(-0.0639421 -0.0334969 -7.02958e-22)
(-0.024611 -0.0118089 0)
(-0.0136226 -0.0254522 2.14833e-21)
(-0.134957 -0.0330487 7.38236e-22)
(-0.139181 -0.056028 -1.83445e-21)
(-0.0859194 -0.00146497 -1.30062e-21)
(-0.116913 -0.026402 1.85857e-21)
(-0.116116 -0.0711408 8.61424e-22)
(-0.119671 -0.0872833 0)
(-0.103201 -0.100943 1.57269e-21)
(-0.0304635 0.23384 3.19044e-24)
(-0.128725 0.29869 -2.98956e-21)
(-0.141367 0.22356 3.13464e-21)
(0.118312 0.1866 -2.52219e-21)
(-0.015521 0.169827 1.44076e-21)
(-0.0178879 0.137743 -1.74451e-21)
(-0.0485692 0.206249 -8.9345e-22)
(-0.0169084 0.18156 -3.07695e-21)
(0.000764679 0.174568 -7.88749e-22)
(-0.00789216 0.178844 3.1854e-21)
(0.00109139 0.0931098 0)
(0.00221641 0.132768 2.9013e-22)
(-0.0632494 0.19778 4.23325e-21)
(-0.100881 0.190968 -1.31983e-21)
(-0.106284 -0.117758 4.15163e-21)
(-0.127104 -0.103545 2.47773e-21)
(-0.124443 -0.10543 -3.33166e-21)
(-0.0763138 -0.0612755 5.33554e-22)
(-0.0952562 -0.119209 0)
(-0.100904 -0.0855008 2.4798e-22)
(-0.0377382 -0.0621482 -3.00279e-21)
(-0.083762 -0.139642 -5.84289e-21)
(-0.0223844 -0.0877517 0)
(-0.0690476 -0.140515 2.05113e-21)
(-0.0491434 -0.15798 0)
(-0.0781051 -0.0271684 3.18207e-21)
(-0.0947725 -0.0613829 0)
(-0.0595913 -0.104911 -4.67129e-21)
(-0.0852675 -0.0936215 1.13914e-21)
(-0.017118 -0.00143535 1.36042e-21)
(-0.0502257 -0.00938588 -5.47521e-21)
(-0.106494 0.237517 -5.34669e-22)
(-0.129177 0.201365 0)
(0.00917066 0.194429 1.97004e-21)
(-0.137122 0.108095 -1.2976e-21)
(0.263744 0.0571035 9.59043e-22)
(-0.0275832 0.177928 2.01778e-21)
(-0.0491118 0.176246 -2.27256e-21)
(-0.00856847 0.148434 -1.66687e-21)
(-0.0189017 0.151235 2.8781e-21)
(0.000836364 0.0903953 1.3446e-21)
(-0.00635396 0.11685 -8.89712e-22)
(-0.157111 0.0182813 0)
(-0.10946 0.124433 -1.91695e-21)
(-0.141167 0.0871529 1.08691e-22)
(-0.148096 0.0475047 3.14659e-21)
(-0.053803 0.136032 -1.22914e-21)
(-0.0861386 0.112215 1.19748e-21)
(-0.062598 -0.145654 2.24956e-22)
(-0.0621479 -0.160509 5.05521e-22)
(-0.0466292 -0.170787 0)
(-0.03723 -0.126221 -2.84029e-22)
(-0.00853929 -0.128015 1.90369e-23)
(-0.0277036 -0.176373 -3.58698e-21)
(-0.0303713 -0.15296 1.83757e-21)
(-0.0209638 -0.165488 -2.03069e-21)
(-0.0328503 -0.0916395 3.192e-21)
(-0.0241513 -0.130578 -2.65928e-21)
(-0.0124667 -0.06036 0)
(-0.00217622 -0.0211821 0)
(-0.0549407 0.0568658 -4.55071e-22)
(-0.116143 0.0265408 1.63525e-21)
(0.103627 0.060294 -6.69448e-22)
(0.373968 0.017561 1.67603e-21)
(-0.125405 0.0160443 0)
(-0.17466 0.010417 0)
(-0.0166625 0.117395 -2.08713e-21)
(-0.033759 0.112685 0)
(-0.165337 -0.00466104 0)
(-0.162658 0.00157489 0)
(-0.00696996 0.0849345 0)
(-0.00639887 0.0958174 -9.50023e-22)
(-0.124506 0.00455022 0)
(-0.122951 0.032734 -3.18463e-21)
(-0.0443001 0.0628554 0)
(-0.083191 0.066957 0)
(-0.0977748 0.0394616 2.69574e-21)
(-0.15158 -0.0109296 5.67865e-22)
(-0.0118505 -0.179986 2.51226e-21)
(-0.0112519 -0.165431 0)
(0.000246875 -0.133534 -4.01859e-23)
(-0.00719439 -0.157351 0)
(-0.00347204 -0.183769 0)
(-0.00448114 -0.10099 -3.51871e-21)
(-0.00277815 -0.130603 3.21054e-21)
(-0.0465105 0.0166711 0)
(0.122709 0.0122839 -1.39014e-21)
(0.374124 0.0025619 0)
(-0.184644 0.00425581 -4.68884e-22)
(-0.155537 0.0087935 1.22214e-23)
(-0.143704 0.00534349 -2.50735e-22)
(-0.174143 0.00598862 1.3074e-22)
(-0.00455268 0.0306031 5.48858e-21)
(-0.0326854 0.0249313 -1.03226e-21)
(-0.070283 0.0114401 -2.11967e-21)
(-0.0832345 -0.0145576 0)
(-0.083605 -0.00425638 0)
(0.000279224 0.00894044 1.72232e-21)
(-0.000130353 0.0224611 -6.50825e-21)
(-0.0640783 -0.00565503 0)
(0.00199477 -0.172765 -5.44146e-22)
(0.000380852 -0.133324 3.98402e-23)
(-0.00165721 -0.177336 -4.6304e-21)
(0.0012218 -0.185041 4.30681e-21)
(-0.00145286 -0.0986883 0)
(0.000233971 -0.141426 -5.35748e-22)
(0.0968971 -0.00265433 0)
(0.36179 -0.0015437 0)
(-0.169149 -0.00189174 4.26323e-22)
(-0.0952665 -0.0021891 -3.64107e-22)
(-0.149508 0.000226656 3.31831e-22)
(-0.183762 0.00674651 -5.5565e-22)
(-0.0246832 -0.000871613 0)
(0.130893 -0.186231 -5.76324e-21)
(-0.150326 -0.226622 9.82463e-21)
(-0.000584806 -0.170739 1.67218e-22)
(-0.00340842 -0.135801 0)
(0.000956004 -0.176923 3.94797e-21)
(-0.000633384 -0.183876 -2.87774e-21)
(0.000619914 -0.0959656 0)
(0.00239278 -0.146523 -1.02832e-21)
(0.0887859 -0.000161972 -3.84274e-23)
(0.356228 -0.00327755 -2.09462e-21)
(-0.191323 -0.00313709 -2.13917e-21)
(-0.104321 -0.000226553 -6.24854e-22)
(-0.152707 0.00167721 5.31977e-22)
(-0.191506 -0.00175643 0)
(0.266592 -0.05309 -6.96032e-21)
(0.0254878 -0.166147 -6.40444e-21)
(-0.0151261 -0.171128 0)
(-0.0193231 -0.14222 0)
(0.129266 -0.0083072 -3.06261e-21)
(0.38171 -0.0156515 2.60967e-21)
(0.127288 -0.0590361 1.15809e-20)
(-0.054504 -0.210982 0)
(-0.113219 -0.218888 9.19187e-21)
(-0.0353131 -0.249567 1.60175e-21)
(-0.148087 -0.305212 -2.59557e-21)
(-0.0670853 -0.193455 -1.69954e-23)
(-0.0154883 -0.181134 -3.83717e-21)
(0.00022304 -0.175741 1.64989e-21)
(-0.00637737 -0.178476 6.07204e-21)
(0.00117015 -0.105528 -3.64466e-21)
(0.000178696 -0.143524 2.36654e-21)
(-0.0502546 -0.0137922 2.45439e-21)
(-0.171643 0.00264069 3.73417e-21)
(-0.16713 -0.00568492 -3.37156e-21)
(-0.144872 7.19926e-05 2.48572e-22)
(-0.17581 -0.000230703 0)
(-0.063634 -0.0652545 -3.84443e-21)
(-0.149047 -0.172443 -2.63e-21)
(-0.0450856 -0.173612 -6.38749e-21)
(-0.0273062 -0.174881 7.55022e-22)
(-0.128645 -0.0147799 0)
(-0.117072 -0.0280253 -9.96697e-22)
(-0.131567 -0.172003 -6.74337e-21)
(-0.0898179 -0.176432 8.70465e-21)
(-0.0743192 -0.129231 6.39326e-21)
(-0.0516885 -0.138279 0)
(-0.00752365 -0.141839 0)
(-0.0177655 -0.146002 -2.51023e-21)
(-0.00139214 -0.0982104 0)
(-0.00757273 -0.120419 0)
(-0.188357 0.000177719 2.81968e-21)
(-0.179019 -0.00506076 -5.43957e-21)
(-0.137564 0.00216005 -2.61687e-22)
(-0.169792 -0.00295081 -1.59525e-21)
(-0.15703 -0.0189321 5.16456e-21)
(-0.149071 -0.0729697 -4.46068e-21)
(-0.0187172 -0.115914 1.50527e-21)
(-0.0347221 -0.114645 3.62251e-21)
(-0.175095 0.00479713 4.45838e-21)
(-0.157139 0.00262645 -1.788e-22)
(-0.043691 -0.0639598 -8.00734e-21)
(-0.0778264 -0.0771428 3.85467e-22)
(-0.110636 -0.0614006 1.41759e-21)
(-0.00739027 -0.0831072 0)
(-0.00830214 -0.0932899 -2.74699e-21)
(-0.138161 -0.00453352 -2.16099e-21)
(-0.159227 0.00831523 1.53582e-21)
(-0.0888011 0.0169435 1.4261e-21)
(-0.00690044 -0.0276235 0)
(-0.0346015 -0.0205824 3.56447e-21)
(-0.103455 0.01139 1.60326e-22)
(-0.0941639 -0.00848033 0)
(0.000131661 -0.00942563 0)
(-0.00122567 -0.0225395 0)
(-0.0617325 0.00676289 -3.74483e-21)
(-0.0227519 0.00113735 2.94733e-21)
)
;

boundaryField
{
    movingWall
    {
        type            fixedValue;
        value           uniform (1 0 0);
    }
    fixedWalls
    {
        type            noSlip;
    }
    frontAndBack
    {
        type            empty;
    }
    defaultFaces
    {
        type            empty;
    }
}


// ************************************************************************* //
