/*--------------------------------*- C++ -*----------------------------------*\
  =========                 |
  \\      /  F ield         | OpenFOAM: The Open Source CFD Toolbox
   \\    /   O peration     | Website:  https://openfoam.org
    \\  /    A nd           | Version:  8
     \\/     M anipulation  |
\*---------------------------------------------------------------------------*/
FoamFile
{
    version     2.0;
    format      ascii;
    class       volScalarField;
    location    "1000";
    object      epsilon;
}
// * * * * * * * * * * * * * * * * * * * * * * * * * * * * * * * * * * * * * //

dimensions      [0 2 -3 0 0 0 0];

internalField   nonuniform List<scalar> 
4109
(
0.117505
0.131183
0.120809
0.12988
0.135524
0.131486
0.13676
0.120696
0.145275
0.145104
0.14318
0.147277
0.120098
0.134656
0.139654
0.150936
0.151597
0.149996
0.152001
0.141144
0.121866
0.130646
0.13148
0.158825
0.160152
0.16533
0.120012
0.133808
0.118582
0.16047
0.149186
0.143184
0.132437
0.13128
0.137933
0.163078
0.164098
0.176548
0.13723
0.119711
0.134472
0.137094
0.12239
0.166565
0.154523
0.552521
0.250008
0.148859
0.143826
0.132372
0.138991
0.170778
0.178449
0.192218
0.150524
0.137694
0.117473
0.135025
0.139346
0.147576
0.143939
0.676853
0.177315
0.163066
0.157185
0.212698
0.55301
0.151025
0.143476
0.143701
0.207829
0.184805
0.236317
0.22742
0.224585
0.155895
0.15557
0.143841
0.134909
0.144253
0.140646
0.143546
0.149308
0.152118
0.182899
0.248556
0.590446
0.800353
0.810651
0.188968
0.184678
0.169517
0.163121
0.157878
0.19388
0.422502
0.151296
0.143933
0.237085
0.220717
0.209838
0.242332
0.248356
0.245916
0.251896
0.165702
0.161309
0.155437
0.141093
0.154491
0.208243
0.147195
0.151785
0.15473
0.16132
0.818594
0.303688
0.400247
0.567046
0.895689
0.846846
0.252088
0.206331
0.194385
0.178849
0.172037
0.165669
0.157406
0.429736
0.162586
0.154745
0.241512
0.227104
0.260361
0.251883
0.27434
0.256568
0.172105
0.169815
0.169592
0.155143
0.161005
0.211033
0.152191
0.15755
0.162786
0.166813
0.798258
0.474625
0.916039
0.599376
0.925889
0.285158
0.214462
0.20367
0.186773
0.179151
0.17249
0.166066
0.159857
0.415398
0.15447
0.235695
0.221824
0.269644
0.248224
0.279166
0.283649
0.300085
0.182711
0.178211
0.176976
0.16391
0.169625
0.226723
0.15922
0.165602
0.168919
0.176767
0.556282
0.972611
0.580149
1.00939
0.984406
0.313869
0.197387
0.207055
0.188714
0.172229
0.180802
0.170738
0.473933
0.163199
0.219138
0.230588
0.263616
0.24429
0.278158
0.297222
0.296313
0.338056
0.190365
0.188166
0.18947
0.177771
0.171349
0.228538
0.165791
0.171663
0.177975
0.18381
0.602817
1.05465
1.07884
0.666608
1.09687
0.310155
0.198463
0.210152
0.184839
0.178471
0.496468
0.169888
0.221467
0.234392
0.257909
0.24768
0.273648
0.29623
0.311801
0.335234
0.375038
0.202439
0.196971
0.196618
0.189093
0.17895
0.241311
0.179823
0.172462
0.211963
0.185976
0.194915
0.590942
1.1507
0.698008
1.19332
1.19331
0.329638
0.200876
0.208848
0.190314
0.547511
0.171658
0.224067
0.234165
0.26209
0.250337
0.277485
0.289834
0.315064
0.338442
0.362229
0.422392
0.213115
0.205307
0.20264
0.222023
0.181142
0.245373
0.184168
0.225183
0.203814
0.196864
1.24217
0.615365
1.29077
0.766525
1.32887
0.338333
3.64985
0.202997
0.21522
0.577122
0.179056
0.223643
0.237527
0.26306
0.249462
0.279754
0.293522
0.308307
0.33749
0.364643
0.402126
0.412958
0.47906
0.210092
0.219832
0.203516
0.234342
0.236736
0.186845
0.255218
0.199698
0.216297
0.207085
0.639395
1.36604
1.41542
0.770314
1.44501
0.35389
4.40738
3.87582
4.60697
3.18424
3.9592
2.78974
0.751963
0.187954
0.23217
0.238453
0.25413
0.252443
0.267529
0.280579
0.29401
0.311392
0.42399
0.327688
0.361238
0.397176
0.478459
0.541667
0.510046
0.617859
0.231726
0.225023
0.247544
0.251647
0.227121
0.19941
0.271792
0.207346
0.219421
0.698876
1.52084
1.5033
0.357017
9.80429
7.17486
4.72242
3.39321
4.36372
5.47821
0.724371
0.718617
0.810411
3.02079
2.61985
2.79068
2.54537
2.91514
1.38692
0.218517
0.306342
0.287399
0.273888
0.464694
0.284918
0.29562
0.311873
0.330418
0.42252
0.349641
0.387942
0.533201
0.479672
0.589861
0.576224
0.721148
0.806613
0.248664
0.251309
0.265024
0.264859
0.241316
0.231316
0.209935
0.269354
0.223009
0.789812
1.81173
10.1273
7.33936
3.60962
4.35717
5.52844
0.787731
0.840137
0.920336
0.843768
0.898342
2.13266
2.32175
2.24651
2.52334
2.99091
2.06861
1.18156
0.318391
0.328625
0.29229
0.454859
0.47188
0.310683
0.308336
0.329142
0.351503
0.414618
0.373177
0.542322
0.509188
0.595643
0.647278
0.729696
0.766512
0.276542
0.265319
0.232793
0.293498
0.281782
0.254491
0.245423
0.319437
0.236784
0.224545
0.330607
0.867854
9.84249
11.2001
7.49129
3.58597
4.45296
5.70717
0.830641
1.00247
1.18956
0.939052
1.02763
1.82949
1.47208
0.933202
1.00112
1.9927
2.18588
2.5446
2.95255
2.48324
2.13094
0.605502
0.345349
0.325214
0.44396
0.473825
0.325193
0.328341
0.349737
0.374208
0.400022
0.553597
0.513289
0.605108
0.660802
0.698565
0.758244
0.302253
0.319378
0.295074
0.248683
0.249057
0.27097
0.286961
0.259836
0.334763
0.307203
1.72618
2.49526
0.241299
0.235139
10.2517
7.29755
7.04484
11.4057
7.76151
3.63366
4.54875
5.91913
0.912761
0.805851
1.07055
1.20277
1.13502
1.4044
1.66362
1.0369
1.12286
1.90799
2.14635
2.52699
3.06518
3.27115
3.08735
3.87663
0.641798
0.409773
0.348313
0.429296
0.462463
0.350669
0.34667
0.370389
0.400717
0.498965
0.540404
0.586575
0.639251
0.693383
0.739234
0.773232
0.33738
0.335561
0.262453
0.261986
0.276741
0.293221
0.312759
0.358075
0.32708
0.264369
0.361017
0.458466
10.664
7.53974
6.47381
4.31498
4.3917
11.5843
7.60072
3.71551
4.14697
4.95762
1.00671
0.876719
0.838714
1.61549
1.25986
1.35025
1.15896
1.24828
1.86929
2.11717
2.63669
3.13222
0.944904
3.87783
3.92182
4.47774
0.854882
0.455424
0.386792
0.429776
0.462374
0.371141
0.373309
0.398423
0.498412
0.539005
0.584337
0.635693
0.680297
0.713927
0.770654
0.782891
0.376176
0.37787
0.283053
0.282784
0.298944
0.315768
0.331774
0.385257
0.349436
0.332951
0.283579
0.302675
10.4477
3.29171
6.16611
5.39711
4.35535
11.7404
7.70914
3.51002
4.33029
5.22201
6.51452
1.11569
0.862336
0.976293
0.867314
1.29764
1.56127
1.41971
1.87386
2.27455
2.71537
2.99761
0.994407
4.63654
4.81241
5.59015
0.965454
0.532906
0.42197
0.46009
0.426059
0.396673
0.401669
0.494671
0.535265
0.627015
0.578133
0.66774
0.709718
0.711793
0.759965
0.823954
0.421507
0.407905
0.417834
0.304297
0.303464
0.330321
0.349413
0.372167
0.364646
0.306066
0.349316
10.9353
7.30173
2.47821
2.7169
4.9653
4.35675
3.59392
8.10778
11.6782
3.65402
4.28726
5.04612
6.20935
1.23862
0.892837
1.06792
0.919245
0.979825
1.46353
1.57339
1.37164
1.94505
2.32959
2.63831
3.13335
1.47401
5.55489
5.89798
6.515
1.20997
0.611293
0.444862
0.463035
0.428991
0.429549
0.502869
0.534686
0.617387
0.580809
0.68116
0.711791
0.749129
0.798986
0.857109
0.474619
0.456775
0.45167
0.400129
0.330298
0.332456
0.351184
0.365318
0.38138
0.330769
0.41216
11.7556
8.623
6.4432
5.50839
1.92308
2.16862
2.59469
4.1624
3.56008
3.08902
1.56117
8.09184
11.4655
11.6747
3.6375
4.28798
5.73851
5.04662
1.19567
0.943882
1.04419
0.973715
1.51542
1.70893
1.33248
3.13816
2.00076
2.24162
2.7031
1.5978
6.75837
7.27243
8.13401
0.473559
1.45155
0.632425
0.466601
0.466558
0.55402
0.531742
0.636343
0.643754
0.598497
0.691277
0.752923
0.811264
0.537123
0.500036
0.485586
0.428655
0.414895
0.351334
0.347283
0.371955
0.394284
0.355365
0.440424
0.617021
0.702066
8.36457
6.67936
5.12869
4.42389
1.77569
2.19127
2.62916
3.42764
2.94203
1.4646
1.24731
1.07337
0.860721
0.799973
10.8309
7.80641
10.8555
8.13343
3.16462
3.67723
4.21667
5.60405
1.17294
0.996242
1.0563
1.72703
1.52246
1.33607
1.26962
2.69359
2.68788
1.97713
2.33248
1.95458
9.22382
8.37709
9.37245
0.666788
1.56183
0.50131
0.557495
0.639102
0.583288
0.68666
0.732791
0.786203
0.541475
0.520549
0.462879
0.440202
0.418149
0.380345
0.375292
0.39912
0.513278
0.384167
0.741298
0.619381
0.680215
6.409
5.41963
4.19619
3.58392
1.79217
2.24733
2.47653
2.82513
1.57428
1.23732
1.30377
0.760503
1.04561
0.825783
0.900504
8.01285
6.67113
6.2525
5.15082
3.0025
3.52707
4.60312
2.63039
1.13366
1.0573
1.6454
1.40684
1.532
1.36024
1.22197
2.36244
2.40651
2.00183
1.80415
11.3033
10.529
11.3654
1.07342
1.75279
0.552532
0.322309
0.635519
0.700519
0.759601
0.561334
0.49899
0.479269
0.452833
0.426529
0.403017
0.39636
0.462802
0.401891
0.691125
0.616146
5.04642
5.20355
4.42532
3.43665
2.91191
1.92208
2.12035
2.36741
1.64355
1.45871
1.28052
0.768993
0.819099
1.128
0.891278
0.984568
5.79421
5.17641
5.13595
4.29851
2.32756
3.11933
3.40962
2.69069
4.32648
1.1215
1.72947
1.56773
1.47289
1.30098
1.19121
1.80687
1.99252
2.03127
1.84988
15.1823
13.6397
15.649
3.0713
0.61799
0.902147
0.681366
0.743248
0.54147
0.513411
0.483969
0.459919
0.433655
0.429523
0.471773
0.437801
0.676729
0.587682
4.25038
4.32604
3.54113
2.79965
2.41798
1.82953
2.01411
1.58802
1.39072
1.23524
0.73914
0.801274
1.10345
0.887542
0.980629
4.27265
4.13339
3.34532
1.89332
2.0972
2.38375
2.6044
3.55148
1.50034
1.37258
1.25155
1.64509
1.58003
1.79791
2.6448
20.8796
27.3958
9.45535
0.677817
1.11631
0.739181
0.560257
0.525762
0.4952
0.462852
0.458289
0.506365
0.641492
0.605448
3.51507
3.45936
2.81686
2.32353
2.0518
1.73467
1.51063
1.32712
1.17599
0.701314
0.770843
1.04884
0.849662
0.94195
3.40615
3.40176
2.78919
1.95536
2.1278
2.30828
1.81823
2.82759
1.41158
1.30882
1.5097
1.54038
1.67697
4.70899
46.1643
45.4954
21.3382
0.754555
2.34204
0.566036
0.536535
0.494039
0.502083
0.618614
0.66322
0.617523
2.83005
2.81309
2.33797
1.98757
1.76637
1.53934
1.35298
1.20186
0.722681
0.795328
1.07356
0.873576
0.967579
2.78428
2.77102
2.32925
1.85494
1.98324
1.68678
2.347
1.35724
1.43021
1.45601
1.52722
1314.36
10.0956
77.9432
81.0379
51.3525
1482.23
0.57955
0.541244
0.556469
0.553666
0.848903
0.669739
0.63024
2.30199
2.32658
1.99986
1.72339
1.50583
1.33252
1.18733
0.734069
0.800822
1.07025
0.880699
0.966507
2.21336
2.23581
1.98269
1.68309
1.53066
1.95586
2.00959
1105.25
1207.46
23.404
139.919
140.006
1582.06
1368.87
1951.65
0.594757
0.541554
0.613935
0.610655
1.41867
0.685711
0.625129
2.01128
2.00478
1.7267
1.50891
1.33495
1.1959
0.749651
0.819722
1.08029
0.982876
0.896165
1.97308
1.75619
1.5274
1.74006
1.81119
1.77997
764.687
975.823
1147.83
53.4516
1533
1304.31
1833.48
1961.9
0.621453
0.617007
0.683115
3.05476
0.69939
0.634823
1.67086
1.68281
1.48697
1.32162
1.19071
0.75048
0.83217
1.08565
0.991898
0.909468
1.76057
1.57274
1.62301
1.65276
1.63803
1.61587
713.303
611.641
896.776
1138.61
1896.89
1679.09
1524.3
1292.53
1911.22
1981.19
0.660356
0.681188
0.756326
0.681862
0.700275
0.740029
1.54804
1.37307
1.2523
1.13419
0.810667
0.822035
1.06372
0.964323
0.918442
1.57055
1.5248
1.52905
1.50798
1.48163
557.662
507.441
863.993
1195.09
2190.78
1963.98
1473.46
1725.34
1572.55
1349.28
2039.15
2022.7
0.695938
0.723825
0.739429
0.761956
0.822646
1.45043
1.33285
1.23495
1.13748
0.853106
0.878212
1.06159
0.990506
0.932847
1.42033
1.38875
1.34338
2452.42
445.168
440.974
884.173
1369.64
2212.78
2136.58
1260.09
1496
1817.22
1713.66
1528
2269.17
2098.75
0.726043
0.752579
0.7877
0.820124
1.32131
1.27177
1.20442
1.1331
0.865945
0.909198
1.06607
1.00829
0.953794
2902.56
2422.6
366.232
407.049
990.202
1881.72
2277.26
2424.04
1155.68
1260.36
1550.01
1968.73
2040.46
2051.43
2678.39
2237.07
3212.96
3027.72
2397.81
313.914
408.414
1333.75
4454.35
2421.8
2927.73
988.971
1163.24
1290.35
1654.62
2223.96
2895.81
4637.97
3463.56
2480.33
3244.1
3589.17
3080.84
2413.96
292.313
487.492
3078.98
2704.61
3774.78
876.833
999.823
1193.12
1365.7
1844.81
2687.28
6776.1
5315.48
3167.57
3689.55
3997.19
3097.65
2525.7
321.795
958.529
3286.66
5362.91
596.742
869.494
1048.54
1261.84
1514.87
2208.01
3718.87
12568.6
2698.34
3451.15
4263.65
4410.8
3167.27
2828.4
573.541
4696.8
129.269
536.982
868.422
1148.95
1397.4
1808.07
3042.37
7544.44
2974.14
3097.03
3751.32
5007.36
4811.45
3402.91
3637.15
10117.4
83.7189
121.431
493.364
873.555
1332.65
1665.92
2487.2
6174.25
2506.18
3424.84
3574.3
4141.24
6028.72
5285.96
4125.8
6826.02
91.1764
88.1434
117.564
463.051
887.825
1679.6
2289.43
4978.17
1309.92
3035.44
4004.75
4166
4653.16
7393.58
6188.07
7092.75
97.2216
99.1881
95.7627
118.766
447.154
922.811
2460.23
4556.31
1076.68
1492.14
3854.62
4793.49
4948.2
5462.15
9132.72
9414.17
97.6954
105.687
110.738
107.944
128.771
449.948
1032.41
5230.77
930.626
1174.32
1638.02
5310.92
5935.51
6118.54
7322.15
11237
92.3574
106.142
117.89
127.695
127.767
160.264
520.65
1298.77
946.905
1045.34
1287.03
1763.33
8148.88
7698.46
8262.34
9319.07
85.3093
100.281
118.328
135.87
154.151
163.428
249.507
1060.52
1075.29
1057.97
1172.21
1442.28
1880.25
14017.2
10459.1
14414.2
128.449
89.7413
111.808
136.294
164.03
200.79
246.378
662.618
1335.67
1176.42
1182.7
1334.78
1686.72
2091.7
27315.9
13187.8
577.394
121.149
97.4205
128.802
164.447
213.972
307.766
600.123
2463.17
1551.05
1292.46
1344.55
1575.33
2120.39
3109.69
66798.1
901.631
523.256
117.72
109.702
155.407
214.4
328.794
763.837
2878.18
2845.17
1774.17
1450.5
1585.71
1988.29
3055.04
8276.57
1000.81
888.353
481.75
119.35
129.692
202.407
329.335
817.137
2613.63
3270.96
3267.75
2057.24
1697.14
2001.54
2868.53
6050.73
1174.35
1015.67
885.559
451.929
129.979
165.651
310.247
817.21
3252.19
3012.55
3738.39
3767.92
2482.67
2135.35
2890.61
5719.3
1268.88
1185.57
1069.47
890.72
436.058
162.056
249.011
767.073
3350.53
3576.7
3499.35
4304.44
4383.2
3216.02
3090.44
5794.73
1486.16
1271.53
1220.47
1176.01
905.946
438.779
251.671
601.846
3293.01
3821.26
3885.97
4083.38
5107.33
5177.44
4696.08
6240.56
1705.81
1513.68
1305.31
1295.63
1367.75
944.016
509.383
662.147
2894.6
3690.88
4438.86
4223.4
4846.08
6498.53
6508.39
9144.68
2081.5
1891.11
1763.55
1573.72
1385.7
1439.94
1727.41
1057.78
1047.99
2435.27
3005.2
4099.76
5264.89
4648.76
5859.95
9328.56
12223.2
1696.78
2082.91
1987.29
1868.4
1684.67
1541.8
1722.52
2538.59
1340.89
2175.83
2404.88
3048.92
4477.42
6380.03
5552.85
7992.3
15292.3
1849.62
1532.46
1655.47
2103.72
2130.33
2032.9
1882.55
1847.49
2376.76
5421.45
2185.4
2378.36
3073.46
4817.73
7787.12
7740.33
18039.5
1913.87
767.555
1437.74
1435.31
1655.99
2149.73
2379.91
2302.86
2257.94
2552.93
4759.86
851.738
1214.37
2240.57
2391.86
3148.28
5224.58
9545.51
10966.9
2072.83
601.031
1323.44
1380.92
1716.65
2234.08
2818.1
2786.82
3117.45
5150.49
678.524
1084.54
2377.34
2499.59
3381.92
6144.79
11968.2
2347.05
480.677
1261.06
1379.2
1878.53
2385.29
3654.09
3856.48
6353.85
563.612
1004.24
2650.61
2796.24
4103.46
9653.74
2831.11
396.12
1254.59
1449.63
2243.18
2651.4
5631.81
7835.3
489.633
972.736
3214.96
3592.77
7037.83
3662.77
339.607
1321.44
1653.68
3195.13
13420.8
450.538
999.632
4584.48
6728.03
5230.06
315.263
1521.44
2238.35
7538.34
448.499
1121.98
9844.79
343.18
2101.55
5136.71
527.168
1509.44
610.17
5000.1
1009.2
3464.69
0.906034
0.866229
0.890953
0.890864
0.920185
0.916337
0.929819
0.929197
0.947147
0.833824
0.854726
0.862917
0.886631
0.893315
0.916503
0.926066
1.00137
1.02546
1.04918
1.08566
1.11299
0.946246
0.958974
0.945362
0.946324
0.954572
0.949056
0.973685
0.965991
0.992034
1.15609
1.17646
0.806145
0.828099
0.83961
0.861536
0.873048
0.892902
0.909483
0.929317
0.9457
0.964032
0.983385
1.00294
1.03218
1.05983
1.10854
1.13627
1.22577
1.2406
0.976859
0.991814
1.0114
1.0275
1.05185
1.07373
1.1143
0.972268
0.97675
0.974636
0.973643
0.992972
0.981224
1.02188
1.00874
1.04181
1.11409
1.14395
1.3107
1.33656
1.22349
1.21767
1.29936
0.786521
0.805901
0.822421
0.841333
0.858971
0.877591
0.897739
0.915287
0.943089
0.963703
0.989011
1.00907
1.07441
1.10149
1.14693
1.17193
1.24327
1.26771
1.34957
1.38608
1.48071
1.49398
1.62857
0.999363
1.00867
1.02782
1.04397
1.06909
0.997956
0.999805
1.00858
1.00126
1.03386
1.01938
1.09376
1.06965
1.05299
1.07846
1.13808
1.14201
1.22521
1.25102
1.57272
1.36591
1.48814
1.31664
1.36252
0.775547
0.793386
0.813473
0.832492
0.853477
0.871473
0.894062
0.914375
0.935714
0.960896
0.991099
1.03233
1.16742
1.10277
1.21569
1.27137
1.34319
1.36513
1.45066
1.67533
1.72242
1.74194
2.01157
2.04388
1.94754
2.0911
2.09388
2.81911
1.02165
1.03131
1.04777
1.06376
1.14623
1.118
1.02626
1.02336
1.04387
1.03341
1.09658
1.07438
1.05995
1.19813
1.16827
1.08896
1.12847
1.15946
3.65084
3.082
5.68486
1.23204
1.23543
1.32357
1.35524
1.61093
1.64243
2.30574
1.93636
1.55231
1.61937
0.781329
0.795401
0.820573
0.836583
0.863026
0.87968
0.908924
0.928755
0.991776
0.968354
1.04786
1.07498
1.17107
1.18769
1.36893
1.36392
1.54751
1.56032
1.73313
1.76472
1.94836
22.6228
21.1797
12.5041
2.01042
2.23388
2.40876
2.67705
2.95099
3.10011
3.0924
11.6196
4.93214
1049.74
1328.26
1243.71
1827.81
1541.15
1655.97
1768.16
1837.12
1.04703
1.04918
1.07231
1.08639
1.14232
1.11815
1.05712
1.05061
1.10025
1.08146
1.07018
1.252
1.21984
1.18996
1.16376
1.10703
1.15412
1.25075
1.18746
1.24184
895.01
629.077
109.761
57.498
25.0528
2.46029
4.09508
5.38157
14.9318
1.36663
1.37292
1.38266
1.3724
1.59693
1.62804
1.77859
1.70343
2.28943
961.189
1258.27
1472.73
1399.3
1619.75
1764.68
1798.31
1857.77
1809.49
1760.67
0.872173
0.838358
0.90318
0.89148
0.94952
0.942004
1.00011
0.996231
1.05288
1.05113
1.12052
1.11952
1.23851
1.26912
1.31941
1.33617
1.18117
1.45667
1.26801
1.32047
2.81158
2.80671
3.38535
3.80962
3.72398
58.3203
94.0517
300.479
182.514
56.4249
39.2135
6.33574
8.38263
12.1622
11.4211
36.1467
16.8019
14.8466
390.166
930.587
614.525
675.474
956.042
1183.4
1309.9
1303.27
1608.34
1596.75
1606.1
1519.24
1823.42
1883.24
1918.1
1741.71
1891.02
1811.81
1.07565
1.07597
1.09701
1.11294
1.14477
1.12134
1.10973
1.09198
1.08169
1.30377
1.26924
1.23593
1.20897
1.18381
1.1606
1.12811
1.17386
1.18082
1.24274
1.2485
1.3103
1.23968
185.288
492.078
331.472
848.199
525.153
92.1997
198.271
70.5387
23.7467
1.37367
17.4216
3.06208
6.26438
4.30629
1.55416
1.4848
1.66759
1.56311
1.70311
1.69444
1.93105
1.80983
3.07412
949.692
1332.32
846.863
1459.92
1649.84
1260.26
1490.18
1772.32
1777.58
1795.21
1615.37
1797.62
5.16723
1.15574
103.688
29.1521
2.41742
1.18266
1.78486
1.13443
1.48353
1.09078
1.32871
1.29302
1.24778
1.40544
1.37363
1.59981
2.28252
1.47865
2.75545
4.13862
4.22471
7.72397
22.2883
8.64275
9.29446
39.2819
42.6651
14.8747
13.5966
19.0671
19.9646
26.6749
28.3045
122.083
185.446
344.76
238.071
132.743
83.7334
49.3194
54.2139
99.105
66.7224
73.0094
608.508
480.495
648.913
963.335
854.308
1267.44
1172.35
1578.73
1415.71
1475.71
1678.46
1847.03
1774
1672.83
1856.47
1937.88
1945.47
1.13361
1.10419
1.10202
1.12192
1.14424
1.1257
1.11748
1.14612
1.3585
1.32211
1.28275
1.25211
1.22405
1.19715
1.1811
1.1587
1.40807
1.35052
1.40941
1.46357
1.42428
1.45733
1.19875
1.19444
1.20048
1.22537
1.39036
1.29824
1.3389
1.25503
505.791
397.241
234.298
35.6299
172.592
95.9762
1.47577
1.75603
1.68907
44.9646
4.37254
12.4911
7.7324
1.98425
1.90046
2.08122
2.00734
2.40573
2.08919
5.13572
465.894
1040.9
1313.68
901.497
645.915
1473.32
1207.04
1517.18
991.49
1797.2
1841.36
1923.68
1805.38
1664.91
222.255
246.264
58.9998
11.551
252.693
218.871
30.4827
11.117
21.33
6.39333
13.4854
4.23632
9.35413
2.36391
4.433
10.1264
30.3403
18.4082
37.2939
20.041
26.5447
65.0696
101.781
111.565
56.9181
53.9418
120.644
137.451
62.5564
70.1346
95.1522
96.2251
126.466
103.595
402.459
215.684
290.858
268.976
210.872
189.658
238.93
141.085
220.588
715.457
527.26
1197.79
937.13
1045.69
1487.79
1333.66
1675.55
1590.69
1779.59
1720.72
1.43958
1.40581
1.131
1.14764
1.15067
1.13511
1.13309
1.15818
1.17555
1.32593
1.28102
1.2634
1.22853
1.21538
1.1898
1.18093
1.1628
1.3706
1.33306
1.3531
1.37932
1.33165
1.36311
1.1946
1.20191
1.21636
1.26394
1.5188
1.37903
1.4118
1.30557
91.7067
191.434
291.497
1.63524
1.93478
1.91675
2.30843
2.32176
23.7126
102.264
7.08794
21.6095
2.572
2.33204
3.96204
2.99782
8.20394
314.39
604.52
518.084
1137.82
1172.05
1387.25
1803.05
1940.49
1029.51
1657.29
2063.74
2001.2
2022.29
1875.09
223.099
198.73
102.352
249.121
231.551
290.71
234.677
151.643
319.67
395.978
225.178
107.495
175.445
66.7659
124.799
50.7623
66.1128
89.0609
64.344
143.57
110.058
103.073
103.674
113.182
219.931
241.702
259.832
295.874
188.747
181.471
321.607
339.348
206.512
226.597
290.386
283.39
325.096
552.351
456.724
517.294
358.668
458.235
467.899
415.263
503.784
1028.93
827.392
1386.31
1239.63
1594.76
1516.12
1676.71
1611.41
1.48239
1.42109
1.37562
1.34152
1.16716
1.16242
1.16397
1.17336
1.19277
1.29984
1.27313
1.24798
1.22828
1.20859
1.19441
1.18644
1.2969
1.31641
1.27663
1.30357
1.27943
1.30285
1.20869
1.20856
1.23904
1.33313
1.25308
1.21332
1.68017
1.5239
1.54349
1.41806
1.81589
234.36
140.665
2.21115
2.20651
2.57662
2.4985
3.53387
4.04598
2.50892
26.6565
127.26
31.9512
9.88172
6.24455
28.5219
587.931
389.288
1298.93
1036.65
1762.21
1889.3
2168.26
2181.12
2255.84
2141.81
6.55072
33.2011
256.845
280.87
64.4636
236.928
310.727
252.147
417.659
447.122
256.887
338.187
455.195
436.263
454.407
299.537
376.828
278.19
242.57
228.084
388.366
291.02
401.006
332.507
340.453
455.471
503.16
503.176
531.527
448.689
427.717
379.669
594.366
611.941
472.944
491.755
631.934
628.65
821.008
927.451
805.255
768.234
834.1
745.631
807.044
1283.34
1180.88
1453.38
1385.08
1492.74
1430.59
0.890096
1.61641
1.49827
1.4598
1.41379
1.35988
1.32535
1.29072
1.18197
1.18255
1.18273
1.18468
1.21475
1.26211
1.24562
1.22512
1.21246
1.19957
1.23192
1.25322
1.23239
1.25517
1.24466
1.26405
1.21278
1.27075
1.28529
1.4314
1.25536
1.28175
1.92409
1.60359
1.68251
1.44977
2.26389
2.70402
2.83318
461.849
187.98
2.91499
2.46496
8.87309
4.67838
41.5777
34.9026
23.6208
142.653
231.709
81.0921
1261.09
781.224
1931.95
1711.73
2234.46
2286.58
2499.87
2454.02
3.30012
20.3607
254.257
394.875
41.055
148.947
413.953
329.854
325.703
438.782
344.939
274.499
602.018
411.697
540.998
576.309
579.242
583.901
581.54
505.49
496.702
622.401
596.212
604.516
625.729
752.502
708.906
724.514
731.246
747.71
717.592
856.396
645.347
696.683
875.836
836.886
790.211
804.204
931.354
930.884
1010.46
1012.34
1199.13
1053.75
1070.35
1307.02
1251.36
1303.49
1258.51
0.781665
0.836703
0.892812
1.5128
1.46198
1.44294
1.40826
1.39154
1.35813
1.31211
1.25437
1.28782
1.38025
1.40434
1.19867
1.18658
1.17922
1.18029
1.21528
1.1953
1.19122
1.20151
1.21511
1.20603
1.22689
1.22245
1.23847
1.22639
1.26103
1.31643
1.40538
1.45582
1.34164
1.83728
2.31429
1.59892
1.91048
2.57698
3.71304
2.82762
3.93758
7.56737
1.93391
913.525
534.978
38.1251
14.8013
152.556
87.6822
402.068
712.165
301.338
1810.72
1576.75
2277.08
2393.97
2706.36
2717.48
2.41747
12.7943
215.281
451.585
24.6237
97.8892
464.616
483.315
258.628
289.772
473.271
335.311
544.271
478.413
267.312
344.061
668.449
503.137
566.563
538.423
624.421
679.411
678.04
631.833
661.34
719.877
704.635
707.893
857.041
807.034
771.1
755.75
704.809
847.196
869.554
953.219
892.916
901.875
974.605
988.382
956.812
969.451
999.565
1016.48
1188.97
1142.02
1053.66
1180.32
1155.56
0.769992
0.791117
0.822754
0.890096
0.9333
1.44664
1.36857
1.35775
1.33361
1.33292
1.23058
1.2768
1.25672
1.3049
1.33148
1.31987
1.30181
1.32665
1.28939
1.28724
1.24438
1.2459
1.23093
1.19015
1.18803
1.189
1.19275
1.22315
1.18834
1.19731
1.20446
1.21103
1.20837
1.22415
1.22852
1.261
1.35484
1.29634
1.42464
1.58452
1.53367
1.68624
2.19911
2.73653
1.90767
2.30039
3.2751
5.01103
15.2235
10.8913
9.41929
21.6146
76.2014
66.3814
1702.09
1158.82
336.146
313.132
800.482
1244.68
767.698
2235.87
2431.23
2772.77
2943.64
1.95178
7.66847
163.999
428.388
14.2991
57.5625
439.83
556.647
313.469
255.461
544.097
424.444
359.276
293.961
242.55
246.849
564.12
543.064
306.536
428.592
351.357
433.544
542.397
627.285
607.746
596.811
558.876
567.568
511.569
708.494
705.176
591.553
515.925
543.281
530.369
719.334
766.926
974.445
1007.58
1004.38
985.651
990.892
1011.5
1029.6
987.079
994.231
1.31782
0.77894
0.786104
0.806126
0.833602
0.868161
0.933364
0.978039
0.801617
0.799769
0.834748
0.826211
0.87421
0.857901
1.20023
1.21132
1.15692
1.16987
1.10959
1.12645
1.05899
1.08127
0.918388
0.896851
0.964387
0.938612
1.01128
1.03398
0.984122
1.29945
1.28969
1.27295
1.28008
1.24858
1.23758
1.26401
1.25785
1.25578
1.24176
1.26506
1.21756
1.22071
1.17621
1.18212
1.22964
1.1931
1.20962
1.19149
1.20774
1.21014
1.2064
1.21315
1.21318
1.22396
1.23405
1.23272
1.23215
1.22906
1.326
1.25575
1.48591
1.37557
1.57085
1.8323
1.7252
2.04437
2.70102
3.87077
2.41686
3.06755
4.50533
13.5982
163.014
101.113
194.186
42.8656
177.416
459.264
571.082
2268.33
1832.29
1136.81
1839.63
1212.16
2813.43
2895.78
1.53942
4.9035
413.388
102.338
196.358
8.6807
34.8197
563.431
596.205
367.382
280.736
588.946
457.161
638.755
238.563
235.141
227.405
422.491
366.655
215.423
255.269
283.491
236.714
375.739
438.215
399.189
355.214
375.469
329.611
388.113
315.692
400.758
254.031
337.25
237.577
321.377
552.38
990.575
950.083
683.054
938.695
895.096
1.23659
0.974101
1.01829
0.812884
0.82133
0.846428
0.879336
0.917971
0.830973
0.833051
0.857624
0.856423
0.891355
0.884896
1.13584
1.1485
1.0966
1.11239
1.05475
1.07228
1.01248
1.03277
0.93123
0.918556
0.970578
0.993182
0.954537
1.24802
1.23879
1.22896
1.24432
1.23655
1.20137
1.20682
1.19661
1.21977
1.16453
1.17085
1.12433
1.13403
1.23046
1.23153
1.23087
1.24264
1.23523
1.24232
1.24482
1.23717
1.24779
1.26794
1.25057
1.25272
1.24852
1.37871
1.30091
1.31042
1.63812
1.45736
1.74558
2.20437
2.08312
2.5889
3.54809
7.70898
3.17218
4.96023
9.88555
73.8325
582.987
736.173
513.55
752.977
198.783
631.293
1116.29
1423.8
1926.79
2962.78
2283.57
1.38622
2.1984
4.31939
234.577
483.92
58.1978
143.041
14.7362
543.077
662.111
344.317
251.186
633.885
390.956
665.246
623.29
511.585
508.018
197.485
214.84
283.723
247.461
179.394
191.878
201.327
179.889
237.746
264.188
251.507
223.486
214.552
199.236
170.665
160.189
142.634
124.369
166.027
118.626
708.516
194.79
506.673
2929.55
1.02219
1.09661
0.926419
0.98513
0.848516
0.863882
0.894177
0.86324
0.866529
0.88392
0.885355
0.911673
0.909992
1.08792
1.10111
1.05078
1.06884
1.01263
1.03248
0.977518
0.9992
0.944999
0.967249
0.936295
1.20964
1.2082
1.20322
1.19717
1.15771
1.17084
1.16293
1.19195
1.1228
1.13472
1.08865
1.10001
1.23241
1.21776
1.25805
1.24802
1.32397
1.29715
1.34142
1.32821
1.28103
1.2954
1.34656
1.30378
1.27881
1.37905
1.29804
1.29837
1.52728
1.5198
1.84724
1.81868
2.61493
2.48019
3.95871
2.98262
5.63131
18.1504
4.42395
8.09063
52.1704
252.672
502.358
1296.75
1412.4
1180.91
1228.94
1610.41
1973.19
2232.32
29.3289
1.17727
1.21582
2.02108
2.7151
8.89813
376.857
91.6105
184.857
625.161
436.683
230.09
299.214
634.162
654.34
319.831
410.408
664.101
607.618
527.132
419.931
171.519
194.33
187.617
178.242
153.369
157.357
152.092
152.948
156.304
166.77
118.733
122.03
95.7461
96.1656
85.7722
82.9673
112.609
84.261
1.00072
1.06006
0.890963
0.912823
0.956178
0.897229
0.913251
0.913491
0.916999
0.933374
0.934163
1.05517
1.07046
1.01967
1.04267
0.989867
1.01106
0.96125
0.98351
0.958143
1.20659
1.18318
1.18136
1.18426
1.12978
1.14634
1.17927
1.14623
1.09631
1.11461
1.06783
1.08324
1.26461
1.24104
1.24013
1.30507
1.27975
1.41873
1.40564
1.39384
1.42677
1.54769
1.49938
1.5038
1.4646
1.43851
1.37221
1.33765
1.51339
1.45127
1.56272
2.03892
1.80142
3.35366
3.4763
2.42726
3.27333
5.42035
5.82931
23.8026
73.2963
19.4794
202.128
414.662
744.633
1415.69
1955.23
1970.48
2306.33
8029.85
136.886
1.10103
17.5232
45.8367
1.21889
1.30111
1.38169
2.22752
3.11731
7.98458
372.78
258.461
642.175
584.209
200.735
254.098
699.55
679.926
276.617
367.975
641.893
560.206
427.57
146.729
170.525
125.897
129.961
129.497
119.653
103.218
106.032
86.0013
89.722
80.5173
81.7657
79.4784
82.2332
1.05163
0.934805
0.980337
1.01495
1.02577
0.932356
0.953116
0.943926
0.951777
0.957945
0.959414
1.03391
1.05669
1.00774
1.03023
0.981682
1.00503
0.980609
1.06156
1.17894
1.17788
1.18503
1.16164
1.13986
1.11594
1.18842
1.11465
1.09515
1.09131
1.2595
1.22233
1.2877
1.32957
1.33369
1.41562
1.39663
1.55761
1.59892
1.65647
1.63112
1.84943
1.84036
1.78221
1.59394
1.55447
1.75559
1.71628
1.89084
1.87976
2.62846
2.5659
6.41131
6.59531
6.16389
4.65265
35.5179
26.0855
263.553
163.72
596.488
766.416
1117.83
1992.95
272.191
80.8679
134.761
1.25986
1.16899
12.4229
38.5829
1.3444
1.61772
2.19571
2.65214
7.94789
550.799
429.712
715.202
694.822
176.611
232.079
728.933
653.231
532.434
418.049
274.618
125.226
145.494
97.9009
107.163
104.579
86.4642
90.1938
84.3637
84.9542
85.999
87.6836
1.11729
1.18033
0.983502
0.998073
1.07056
1.13891
0.976424
0.990818
0.977264
0.989982
0.989296
0.995705
1.05683
1.03962
1.01758
1.03431
1.01198
1.25355
1.09514
1.0789
1.07861
1.1692
1.17912
1.14511
1.23454
1.18692
1.15802
1.12809
1.34423
1.33148
1.42477
1.39073
1.52468
1.51286
1.72163
1.67342
1.92257
2.02107
2.52901
2.3354
2.21445
1.99724
1.9182
2.09208
2.08839
2.42255
2.49354
2.4651
5.32939
4.23864
38.5991
12.8293
17.6278
10.256
285.505
155.78
750.495
519.96
1064.29
942.987
417.52
191.979
282.808
62.9842
124.043
1.43509
1.2749
11.8893
32.5114
2.60802
1.5327
5.39124
676.737
581.303
757.688
774.656
237.928
173.911
144.464
736.602
544.123
440.067
309.739
254.377
102.06
116.777
87.1474
91.0282
85.7334
85.5743
90.9552
89.4931
1.21371
1.32727
1.0263
1.08713
1.13797
1.25534
1.02456
1.05617
1.03577
1.01045
1.04902
1.04774
1.08203
1.05603
1.07414
1.3307
1.28676
1.14469
1.12967
1.14663
1.13446
1.19879
1.268
1.18058
1.20518
1.17405
1.5284
1.51963
1.44975
1.65747
1.6254
1.87681
1.98931
1.94381
2.34764
2.28833
4.18796
3.20422
3.31123
2.99732
2.82424
2.71184
3.85107
3.84772
3.7477
3.38704
6.45052
23.1249
16.2763
200.506
89.941
93.7991
586.501
409.088
962.063
783.897
342.159
538.423
645.332
163.797
314.251
48.7648
114.623
1.44868
1.83982
7.57331
31.1502
2.02471
4.61102
794.942
768.129
795.308
775.627
851.036
149.879
174.922
115.956
660.523
503.254
333.856
280.188
171.012
87.3776
97.338
85.3402
83.4536
91.4541
88.6026
1.36127
1.57359
1.10067
1.1732
1.25097
1.43362
1.11195
1.08638
1.14874
1.14379
1.14106
1.13666
1.12916
1.42726
1.3228
1.19927
1.21047
1.18014
1.23732
1.31055
1.25809
1.31349
1.25212
1.85166
1.76074
1.71793
1.5774
2.28835
2.59605
2.39937
2.61338
2.96126
2.79419
3.89685
3.33034
4.93384
5.43579
5.37343
3.66044
8.26088
8.52247
6.59435
76.0723
38.3248
201.465
183.728
507.978
399.149
799.075
707.61
365.532
547.725
677.039
165.424
323.562
45.0407
113.809
2.51305
1.829
7.94354
5.32956
24.0489
672.087
890.041
880.469
889.912
814.781
863.975
702.743
898.778