/*--------------------------------*- C++ -*----------------------------------*\
  =========                 |
  \\      /  F ield         | OpenFOAM: The Open Source CFD Toolbox
   \\    /   O peration     | Website:  https://openfoam.org
    \\  /    A nd           | Version:  8
     \\/     M anipulation  |
\*---------------------------------------------------------------------------*/
FoamFile
{
    version     2.0;
    format      ascii;
    class       volScalarField;
    location    "1000";
    object      nut;
}
// * * * * * * * * * * * * * * * * * * * * * * * * * * * * * * * * * * * * * //

dimensions      [0 2 -1 0 0 0 0];

internalField   nonuniform List<scalar> 
4109
(
0.00066626
0.000661146
0.000658994
0.000666497
0.000669126
0.000677726
0.000672309
0.000677834
0.000675094
0.000656945
0.000666836
0.000678393
0.000667751
0.000671225
0.000676896
0.000677628
0.000666102
0.00067377
0.00067917
0.00067574
0.000660309
0.000678075
0.000675372
0.000678083
0.000673687
0.000668147
0.000656624
0.000672745
0.000677466
0.000681392
0.000677358
0.00067659
0.000669906
0.000671165
0.00067748
0.000682464
0.000673898
0.000667084
0.000667062
0.000669793
0.000667231
0.000662626
0.00067409
0.000681481
0.000678126
0.00148318
0.00083477
0.000677923
0.000677392
0.00066401
0.000673181
0.000677458
0.000676978
0.000672719
0.000675426
0.000660766
0.000660631
0.00067815
0.000676614
0.000670055
0.000675942
0.00196285
0.000684656
0.000680092
0.000679294
0.0007418
0.00123257
0.000678716
0.00067353
0.00066074
0.000671611
0.000678935
0.000689437
0.000677356
0.000679782
0.000673445
0.000670877
0.000667902
0.000647701
0.000675103
0.000679321
0.000679841
0.000675672
0.000668479
0.000726753
0.000741521
0.00152881
0.00193104
0.00194648
0.000684498
0.000685493
0.000680569
0.000680244
0.00068043
0.000680306
0.000942855
0.000676797
0.000663066
0.00069215
0.000686003
0.000682332
0.000686539
0.000692451
0.000684845
0.000673051
0.000676301
0.000674362
0.000666732
0.000657606
0.000678674
0.000651999
0.000680808
0.000680681
0.000677075
0.000670764
0.00210014
0.000824457
0.000992966
0.00126645
0.00196977
0.00201125
0.000668942
0.000687798
0.000689215
0.000682885
0.000682043
0.000681575
0.000676994
0.000937149
0.000657081
0.000665115
0.000692982
0.000689521
0.000694141
0.000692902
0.000681226
0.000689443
0.000676519
0.000673683
0.000671583
0.000659659
0.000677544
0.000682085
0.000681495
0.000682112
0.000678205
0.000671112
0.00175777
0.00102418
0.00194692
0.00131174
0.00201071
0.000801714
0.000690524
0.000688852
0.000683249
0.000682933
0.000682979
0.000681023
0.00066557
0.000818519
0.000635775
0.000694228
0.000690487
0.000696296
0.000694303
0.000695497
0.000696317
0.000680837
0.000679236
0.000677022
0.000671204
0.000655668
0.000680028
0.000674243
0.000683536
0.000683208
0.000678961
0.000673495
0.00118951
0.00227654
0.00121372
0.00194054
0.00199593
0.000750678
0.000685815
0.000686142
0.000684843
0.00068279
0.000684422
0.000668604
0.000860103
0.000634044
0.000688896
0.000689207
0.000697156
0.000692025
0.000697555
0.000700321
0.000691743
0.000685023
0.000679221
0.000676838
0.00067334
0.000662504
0.000682527
0.0006761
0.000684285
0.000684252
0.000681517
0.000673605
0.00116432
0.00214255
0.00198148
0.00117123
0.00202788
0.000748171
0.000685986
0.00068805
0.000685623
0.000671571
0.00085835
0.000647798
0.000689095
0.000691109
0.000692439
0.000692303
0.000695298
0.000700714
0.000698417
0.000702046
0.00068664
0.000682462
0.000679884
0.000674889
0.000659765
0.000685269
0.000672481
0.000685586
0.00068589
0.000682371
0.000683524
0.000676446
0.0010978
0.00216667
0.0012079
0.00196791
0.00201418
0.00072767
0.000688585
0.000688749
0.000679212
0.000857216
0.000655259
0.000692144
0.00069162
0.000694055
0.000695813
0.000695599
0.000695854
0.000701318
0.00070361
0.000696693
0.000693042
0.000682289
0.000678413
0.000666222
0.00068351
0.000688393
0.000674534
0.000687144
0.000685072
0.000676342
0.000685538
0.00218334
0.0010474
0.00198884
0.00118714
0.00203983
0.000725487
0.000782843
0.000674348
0.000680934
0.000851127
0.000657081
0.000692622
0.000690041
0.000694584
0.000698564
0.000699208
0.00069712
0.000698764
0.000704659
0.000703081
0.000707616
0.000698337
0.000692275
0.000662489
0.000680377
0.000675028
0.000684954
0.000685327
0.000692614
0.000673948
0.000690215
0.000679519
0.000687189
0.00101647
0.0021706
0.00196055
0.00114781
0.0020149
0.000712752
0.000754227
0.000791965
0.000796536
0.000776138
0.000781047
0.000789428
0.000933723
0.000657996
0.000630111
0.000676564
0.000661397
0.00068851
0.000694437
0.000701275
0.000696714
0.000699048
0.000710218
0.000699522
0.000705478
0.000710252
0.000707384
0.000699009
0.000706458
0.000701032
0.000673311
0.000677399
0.000686291
0.000688452
0.000679285
0.000694701
0.000677225
0.000691019
0.000689165
0.000985895
0.00223331
0.00196198
0.000704629
0.000781649
0.000845627
0.000776562
0.000788894
0.000787184
0.000805403
0.000707786
0.000723057
0.000731182
0.000762507
0.000766352
0.000739405
0.000774973
0.000783626
0.0014709
0.000617695
0.000601112
0.000642125
0.000694915
0.000712885
0.00069793
0.000699944
0.000702225
0.000700739
0.000709239
0.000702444
0.000709218
0.000715881
0.00071441
0.000708488
0.000719718
0.000730565
0.000729091
0.000666374
0.000682993
0.000689835
0.000688671
0.000682667
0.000690363
0.000696157
0.000674263
0.000694434
0.000954436
0.0023696
0.000812917
0.000817778
0.000783554
0.000782797
0.000801207
0.000722358
0.000710015
0.000739573
0.00072885
0.00073474
0.000743961
0.000750938
0.00078008
0.000773021
0.000771031
0.00251404
0.00108344
0.000550401
0.000616973
0.00068484
0.000713753
0.000713381
0.000700474
0.000704156
0.00070036
0.000702779
0.00070872
0.000703469
0.000718359
0.000718383
0.000723985
0.000723503
0.000728303
0.000726314
0.00067846
0.000685222
0.000693821
0.000693995
0.000691276
0.000682441
0.000692461
0.000696406
0.000699828
0.000700011
0.000676536
0.00098202
0.000792404
0.000845205
0.000813598
0.000783767
0.000789003
0.000800714
0.000729181
0.000719264
0.000725845
0.00073684
0.000740067
0.000740451
0.000729982
0.000732529
0.000734725
0.000755152
0.000775065
0.000770398
0.000767088
0.00240614
0.00188753
0.00062909
0.000630265
0.0006829
0.000713236
0.00071153
0.000699833
0.000703763
0.000705577
0.000704536
0.000706444
0.000716621
0.000717352
0.00072241
0.000722517
0.000722847
0.000726498
0.000672548
0.000695166
0.000691415
0.000696603
0.000697503
0.000685976
0.000685735
0.000693737
0.000697295
0.000689702
0.00150545
0.0017785
0.000703738
0.000651948
0.000816201
0.0008158
0.000834058
0.000843411
0.000818474
0.000779392
0.000787528
0.000804595
0.000732342
0.000729804
0.000734656
0.00074018
0.000749291
0.000738791
0.000754095
0.000735516
0.000741201
0.000764273
0.000759209
0.000770821
0.000774489
0.00278674
0.00217927
0.00237089
0.000591723
0.000604262
0.000676027
0.000707724
0.000710786
0.000703375
0.000708562
0.00070566
0.000706809
0.000712341
0.000715506
0.000717361
0.000720665
0.000723511
0.000728441
0.000729592
0.000686518
0.000689663
0.000704264
0.000697061
0.000696096
0.000696621
0.000699745
0.000705148
0.000689766
0.000692917
0.000650531
0.000609101
0.000833277
0.000811154
0.000822821
0.000772177
0.000753121
0.000853262
0.000810039
0.000783689
0.000786126
0.000799478
0.000735317
0.000733734
0.000732548
0.000762816
0.00074474
0.000749484
0.000739535
0.000741817
0.000760119
0.000755396
0.000767055
0.000773012
0.000721419
0.00284955
0.00248788
0.00250247
0.000636206
0.000600579
0.000674867
0.000708724
0.000711171
0.000707912
0.000700743
0.000709742
0.000713253
0.000715882
0.000718168
0.000720999
0.000724378
0.000726663
0.000730682
0.000732656
0.000677462
0.000699524
0.000701349
0.00070218
0.000701214
0.000703283
0.000702603
0.000701552
0.000690968
0.000698237
0.000698536
0.000682284
0.000833755
0.000762114
0.000775929
0.000825512
0.000768338
0.000858778
0.000806156
0.000785537
0.000791953
0.000800142
0.000808147
0.000738785
0.000736159
0.000736588
0.000732747
0.000742885
0.000752132
0.000748784
0.000759373
0.000764204
0.00077204
0.000772974
0.000699642
0.00290541
0.0025804
0.00264799
0.000610361
0.000589563
0.000668026
0.000714169
0.000709997
0.000712516
0.000707618
0.000714456
0.000718744
0.000723482
0.000719201
0.000724659
0.000729711
0.000729241
0.00073419
0.000737184
0.000690587
0.0006943
0.000709379
0.00070781
0.000704253
0.000705805
0.000709921
0.000693728
0.000695727
0.000699244
0.00065538
0.00082534
0.000807001
0.000754352
0.000745641
0.000768304
0.000808853
0.000760515
0.000818821
0.00084857
0.000783231
0.000794061
0.00079613
0.000809212
0.000741998
0.000737882
0.0007391
0.000738974
0.000738732
0.00074731
0.000747499
0.000745284
0.000756144
0.000765072
0.000775426
0.00077977
0.000796912
0.002937
0.00277234
0.00267175
0.000639347
0.000581246
0.000682169
0.000715726
0.000712733
0.000705269
0.000715765
0.000719124
0.000722538
0.000720519
0.000726679
0.000731713
0.000734372
0.000735647
0.000738372
0.000685476
0.000706242
0.00070806
0.000694955
0.000708173
0.000706522
0.000708098
0.000704476
0.000699446
0.000700367
0.000650389
0.000845329
0.000821365
0.000823159
0.000792267
0.000736472
0.000737744
0.000751785
0.000773107
0.000801711
0.000773511
0.000735647
0.000829516
0.00083731
0.000849638
0.000782745
0.000796472
0.000798009
0.000798372
0.000743636
0.000740386
0.000737117
0.00073838
0.000747728
0.000753438
0.000746811
0.000783374
0.000761238
0.000761566
0.000773242
0.00072107
0.00298102
0.00287834
0.00282535
0.000682565
0.000613353
0.000593666
0.000721204
0.000712277
0.00072261
0.000718752
0.000725871
0.000726003
0.000723071
0.00073246
0.000734355
0.000735731
0.000700274
0.000704206
0.00071307
0.000697666
0.000700463
0.0007123
0.000707509
0.000709266
0.000715087
0.000700227
0.000645622
0.000694303
0.000705103
0.00082477
0.000810524
0.000811036
0.00078288
0.000733993
0.00075163
0.000771076
0.000765716
0.000792585
0.000723135
0.00072049
0.000719677
0.000711725
0.000703351
0.000833502
0.000814181
0.000830033
0.000815876
0.000786427
0.000785195
0.000787096
0.000784132
0.000745601
0.000741333
0.000743368
0.000755038
0.00075122
0.000749793
0.00074309
0.000772467
0.000772577
0.00076588
0.000769388
0.000862109
0.00308116
0.0030177
0.00266132
0.000600188
0.000588987
0.000716567
0.000668522
0.000733372
0.000721288
0.000731016
0.000734074
0.000737609
0.000699794
0.000716519
0.000699384
0.000702589
0.000708991
0.00071335
0.000710726
0.000712196
0.000647696
0.000700411
0.000704605
0.000705744
0.000704582
0.000810358
0.000803001
0.000801587
0.000773699
0.000731446
0.000758601
0.000788226
0.000758369
0.000739198
0.000722786
0.000722326
0.000714225
0.000711871
0.000701136
0.000712633
0.000819152
0.000851431
0.000813152
0.000820597
0.000772633
0.000775945
0.000779164
0.000764174
0.000744142
0.000743613
0.00075278
0.000747537
0.000753148
0.000748821
0.000747917
0.000773077
0.000774199
0.000764009
0.000600622
0.00301877
0.00303505
0.00271892
0.000584659
0.000576715
0.000739606
0.00104366
0.000729146
0.000734094
0.000737349
0.000726353
0.000701943
0.000705363
0.000719139
0.000713343
0.000717108
0.000710644
0.000668249
0.000709486
0.000715242
0.000722547
0.000798206
0.000800707
0.000795473
0.000791689
0.000765053
0.00076085
0.000779182
0.000751578
0.000743675
0.000753169
0.000736905
0.000726932
0.000734466
0.000729807
0.00072856
0.000729323
0.000780501
0.00080262
0.000785539
0.000810352
0.000764549
0.00076335
0.000772525
0.000767059
0.000786337
0.0007447
0.000759009
0.000754338
0.000753462
0.000751401
0.000747545
0.000761087
0.000763733
0.000762832
0.000651995
0.00316702
0.00311436
0.00308795
0.000521902
0.000730768
0.000623754
0.000737319
0.000739602
0.000704122
0.000706801
0.000713763
0.000716704
0.000718303
0.000715131
0.000681463
0.000709621
0.000731107
0.000706684
0.000796965
0.000794569
0.000788689
0.000778046
0.000756886
0.000774881
0.000746095
0.000767532
0.000764999
0.00075651
0.000736836
0.000740971
0.000751557
0.000743503
0.000747355
0.000811957
0.000786015
0.000803335
0.000757013
0.000755443
0.000762665
0.000778092
0.000778295
0.000754647
0.000751564
0.000747879
0.000756304
0.000753959
0.000752845
0.00054145
0.00315479
0.0045163
0.000982609
0.000747292
0.00062491
0.000742933
0.000710469
0.000723583
0.000717953
0.000724023
0.000714952
0.000687639
0.000709299
0.000711613
0.000785508
0.000782357
0.000777861
0.000770986
0.000751427
0.000740671
0.000736378
0.000731843
0.000728246
0.000711949
0.000714869
0.000724374
0.000717777
0.00072109
0.000778716
0.000794243
0.000788784
0.00075298
0.000759067
0.000774433
0.000752273
0.000774514
0.000752664
0.000748299
0.000751739
0.000750803
0.000752074
0.000756302
0.00543142
0.00515317
0.00141612
0.000765344
0.000573645
0.000718993
0.000721464
0.000716398
0.000720209
0.000692807
0.000715807
0.000728339
0.00078169
0.000784
0.000769992
0.000762461
0.000745371
0.000741587
0.000736439
0.000733801
0.000716941
0.000721389
0.000729071
0.000722717
0.0007273
0.000768414
0.000776976
0.000780054
0.000761135
0.000763823
0.000753084
0.000769159
0.000747995
0.000747102
0.00074655
0.000749367
0.00112691
0.000979056
0.00628673
0.006828
0.00239387
0.00122807
0.000722932
0.000720011
0.000727588
0.000725514
0.000632063
0.000724663
0.0007265
0.000766125
0.000767332
0.000764501
0.000760206
0.000752361
0.000751606
0.000743994
0.000733394
0.000730727
0.000744563
0.000738681
0.000737047
0.000768885
0.000764093
0.000769744
0.000759114
0.000750434
0.000753619
0.000760967
0.000871576
0.000966702
0.00155515
0.00833383
0.00824141
0.00135779
0.00103473
0.00190875
0.00072432
0.000722461
0.00072668
0.00073479
0.000564272
0.000728245
0.000724397
0.000769563
0.000767398
0.000759356
0.000754433
0.000749872
0.000746371
0.000731887
0.00073398
0.000742773
0.000739921
0.00073696
0.000766272
0.000765846
0.000757014
0.000754798
0.000754962
0.000758226
0.000576018
0.000754682
0.000793179
0.00245506
0.00119625
0.000836343
0.00188686
0.00179721
0.000728773
0.000725085
0.000749356
0.000536063
0.000730773
0.000726192
0.000755611
0.000757066
0.000754632
0.000749544
0.000747144
0.000729115
0.000736722
0.000742528
0.000741542
0.000736524
0.000765151
0.000762563
0.000749428
0.000763755
0.000750747
0.000752233
0.000473559
0.000481767
0.000625513
0.000612661
0.000562111
0.00184245
0.000996399
0.00063873
0.00161905
0.00166801
0.000729455
0.000736948
0.000767614
0.00073245
0.000731863
0.000731431
0.000756102
0.000749954
0.000748684
0.000743728
0.000737029
0.000732882
0.000743406
0.000739525
0.000737736
0.000760135
0.000748733
0.000759778
0.000747329
0.000747852
0.000374649
0.000387171
0.000487809
0.000432016
0.00163629
0.00040713
0.00191223
0.0015335
0.00077644
0.000447345
0.00133272
0.00152389
0.000725609
0.000745376
0.000731102
0.000733566
0.000735266
0.000750787
0.000749786
0.000749187
0.000745053
0.000737952
0.000737596
0.000743933
0.000740866
0.000739954
0.000755115
0.000745843
0.000742831
0.0013857
0.000288044
0.00029439
0.000346604
0.000258381
0.00141385
0.00028081
0.00197272
0.0015988
0.00122112
0.000550759
0.00026754
0.0010301
0.00136441
0.000739038
0.000729008
0.000735006
0.000731115
0.000739997
0.000742357
0.000745422
0.000743556
0.000736376
0.000737002
0.000743287
0.00074025
0.00074039
0.00140425
0.00115318
0.00021432
0.000204306
0.000207655
0.000103096
0.00116623
0.000184125
0.00202845
0.00164692
0.00128527
0.000922191
0.000332124
0.000108733
0.000727876
0.00118284
0.00166801
0.00114088
0.000939105
0.000150935
0.000119893
8.13988e-05
7.24933e-06
0.000908322
0.000109792
0.0022397
0.00169702
0.00132348
0.000980166
0.000643989
0.000138635
8.72224e-06
0.000443102
0.000977888
0.00198416
0.00134285
0.000922145
0.000734578
9.27033e-05
4.4654e-05
4.63563e-06
0.000653069
5.76898e-05
0.00125542
0.00194717
0.00136937
0.00100911
0.000691545
0.000393028
1.4548e-05
0.00019781
0.00276928
0.00155781
0.0010563
0.000727703
0.000534639
3.76785e-05
1.5211e-06
0.000408038
3.12273e-05
0.00113318
0.000963707
0.00160767
0.00105063
0.000712225
0.000426894
0.00017818
3.37933e-05
0.00417869
0.00216845
0.00120486
0.000813239
0.000540885
0.000341863
1.0854e-06
0.000186947
0.0014174
0.000947412
0.000716631
0.0012465
0.000746518
0.000440612
0.000196617
2.72927e-05
0.00427438
0.00364324
0.00163183
0.000910862
0.000603418
0.000358465
0.000162512
2.63211e-05
0.0018398
0.00121073
0.000772528
0.000507292
0.000886749
0.000465209
0.00020486
3.21004e-05
0.00532815
0.00350899
0.00304105
0.00117564
0.000658918
0.000410183
0.000182418
2.42963e-05
0.00217772
0.00146717
0.00100063
0.000604838
0.000331425
0.000550657
0.000218684
3.50845e-05
0.00461764
0.00437243
0.00272061
0.00239712
0.000806619
0.000451674
0.000227782
3.48749e-05
0.00236271
0.00172913
0.00112092
0.000785352
0.00044166
0.000187985
0.000260362
3.95303e-05
0.00399305
0.0039407
0.00326596
0.00197058
0.00177547
0.000508061
0.000274863
6.33649e-05
0.0023855
0.00187165
0.00131697
0.000808133
0.000560844
0.00028544
7.84657e-05
5.33505e-05
0.00381877
0.00335596
0.00329955
0.00213884
0.00131194
0.00120546
0.000284633
9.61626e-05
0.00222805
0.00189037
0.00142248
0.000947957
0.000533815
0.000326994
0.000130728
1.52157e-05
0.00377115
0.00320437
0.00268533
0.0026835
0.00119633
0.000805252
0.000701852
0.000121564
0.00186881
0.00177235
0.00143746
0.001022
0.000626239
0.000301697
0.000124395
1.38439e-05
0.00392973
0.00316381
0.00256985
0.00202964
0.00210589
0.000549708
0.000455751
0.000266308
0.00142729
0.00149031
0.00135219
0.00103345
0.000674086
0.000354723
0.000117244
9.38814e-06
0.00437825
0.00327655
0.00253595
0.00195181
0.00141737
0.00149709
0.000197811
0.000232876
0.00109243
0.00121613
0.00113907
0.000975075
0.000682226
0.000381308
0.000139625
9.39421e-06
0.00527764
0.00364336
0.0026111
0.00192512
0.00137211
0.000874772
0.000719267
5.08998e-05
0.00125138
0.000913514
0.00100257
0.000821975
0.000645286
0.000386358
0.000150523
1.31707e-05
0.00434467
0.00457086
0.00290428
0.00196942
0.00135236
0.000852356
0.000429158
0.000148443
0.00220866
0.000961936
0.000746223
0.000784768
0.000543504
0.000366315
0.000152846
1.51732e-05
0.00424291
0.00363935
0.00381568
0.00217012
0.00137401
0.000838668
0.00041873
0.000124585
0.00202468
0.00191167
0.00071318
0.000585215
0.000558059
0.000307638
0.000144953
1.56537e-05
0.00261975
0.00368685
0.00291074
0.00305453
0.00148411
0.000846811
0.000410367
0.000120096
0.00194529
0.00168952
0.00157264
0.000503692
0.000427461
0.000324366
0.000120221
1.42485e-05
0.00189698
0.00202244
0.00306087
0.00221336
0.00232134
0.000885526
0.000411195
0.000115755
0.00187625
0.00161787
0.00135866
0.00121491
0.000328711
0.000275835
0.000123398
1.00551e-05
0.00165672
0.00148244
0.00151855
0.00242997
0.0015804
0.00163543
0.000421861
0.000113394
0.00181155
0.00156268
0.00129531
0.00103903
0.000861637
0.000186341
0.000125344
9.38952e-06
0.00141878
0.00132881
0.0011361
0.00109756
0.00181028
0.00101884
0.000946068
0.000126499
0.00191332
0.00186859
0.00150149
0.00125167
0.000984488
0.000736119
0.000533213
7.71255e-05
1.25972e-05
0.00139204
0.00115823
0.00105007
0.00084122
0.000746856
0.00123762
0.000558192
0.000236984
0.00137003
0.00179338
0.00159704
0.00119073
0.000951589
0.000692445
0.000457078
0.000249942
1.3965e-05
0.00161559
0.00115778
0.000937516
0.000820545
0.000598883
0.000437656
0.000659558
0.000213929
0.000565725
0.00120787
0.0011936
0.00165775
0.00131048
0.000896207
0.000669362
0.000426044
0.000213232
4.94522e-05
0.00140797
0.000942375
0.000736624
0.000616255
0.00040739
0.000219541
0.000143667
0.000408103
0.000501379
0.00116316
0.00101654
0.000985547
0.00150879
0.00100967
0.00062428
0.000411444
0.000196409
3.7267e-05
0.000630443
0.000940819
0.00116921
0.000736976
0.000546036
0.000424919
0.000248706
8.2762e-05
0.000279902
0.000399575
0.000994828
0.000819458
0.000762995
0.00134488
0.000710764
0.000380246
0.000188119
3.21255e-05
0.000523463
0.000815848
0.000914592
0.000536594
0.000361809
0.000235162
8.95078e-05
0.00018337
0.000308765
0.00081424
0.000623512
0.000537591
0.00116069
0.000430458
0.000171683
2.93627e-05
0.000419001
0.000677281
0.000659865
0.000343244
0.00018399
6.41756e-05
0.000109721
0.000231059
0.000627635
0.000434802
0.000321846
0.000953834
0.00018985
2.53497e-05
0.000317757
0.000528758
0.000413396
0.000163436
3.58556e-05
5.94105e-05
0.000163905
0.000441729
0.000258553
0.000132436
3.08818e-05
0.000220572
0.000376409
0.000190176
2.46951e-05
3.22337e-05
0.000101571
0.000263613
0.000103706
1.3016e-05
0.000130303
0.000226753
2.73579e-05
4.18981e-05
0.000105304
7.69254e-06
4.96139e-05
9.05147e-05
1.35896e-06
7.52848e-06
1.96846e-06
5.85677e-06
0.000739587
0.000739072
0.000740659
0.000740897
0.000741742
0.00074096
0.000741176
0.000742221
0.000740029
0.000738889
0.000740182
0.000740632
0.000741493
0.000741426
0.000742127
0.000744854
0.000758743
0.000764165
0.000768467
0.000778235
0.000781971
0.000744013
0.000747464
0.000741831
0.000743739
0.000742491
0.000740717
0.000742166
0.000743587
0.000741021
0.000794486
0.00079872
0.000740027
0.000740087
0.000740982
0.00074118
0.000742305
0.000742091
0.000745549
0.000748086
0.00075126
0.000753307
0.000756724
0.00076446
0.000771912
0.000775527
0.000789913
0.000794111
0.000819112
0.00082085
0.00075011
0.000753168
0.000755789
0.000759552
0.000764048
0.000771604
0.000780799
0.000743738
0.000747903
0.000741662
0.000742633
0.000742633
0.000740885
0.000743438
0.000744626
0.00074238
0.000778195
0.000786198
0.000840278
0.000849145
0.000808747
0.000808783
0.000833556
0.000739893
0.000740632
0.000741258
0.000742472
0.000743907
0.000745488
0.00074948
0.000751032
0.000758015
0.000759992
0.000764716
0.00077093
0.000788018
0.000791296
0.000808129
0.000808919
0.000831214
0.000834513
0.000860008
0.00086932
0.000905738
0.000899637
0.00092222
0.000747039
0.000751968
0.000753489
0.000758202
0.000763767
0.00074376
0.000746852
0.000741632
0.00074195
0.000743582
0.00074155
0.000744498
0.000744469
0.000744746
0.000763705
0.000779992
0.000780937
0.000803456
0.00081149
0.000905885
0.000853465
0.000892519
0.000835813
0.000850662
0.000742865
0.00074315
0.000745395
0.000746183
0.000750095
0.000750661
0.000757463
0.000756081
0.00076632
0.000762444
0.000776468
0.000780177
0.000813135
0.000814396
0.000834114
0.000835701
0.000857243
0.000865823
0.000885643
0.00089695
0.000950587
0.000951738
0.000999317
0.00101837
0.000982144
0.00102492
0.00103118
0.00122735
0.000746522
0.000751762
0.000753085
0.000756973
0.00074594
0.000745379
0.000743832
0.000746526
0.000742155
0.000741969
0.000744434
0.000743744
0.000742001
0.000746274
0.000745147
0.000760899
0.000772132
0.000780789
0.00152366
0.00134678
0.00149695
0.000800688
0.000803233
0.000831147
0.00084491
0.000906984
0.000919391
0.00106755
0.000972232
0.000862104
0.000910467
0.000750688
0.00074827
0.000754522
0.000751006
0.000759593
0.000754732
0.00076458
0.000760926
0.000764601
0.000770378
0.000781253
0.000783477
0.000793299
0.000818907
0.000846463
0.000822703
0.000850028
0.00097053
0.000970388
0.00096379
0.00102985
0.00202936
0.00209559
0.00175477
0.00117921
0.00117972
0.00129827
0.00124843
0.00125106
0.00137777
0.00138867
0.00186954
0.00156572
0.00355224
0.00332322
0.00339975
0.00210687
0.00299662
0.00280594
0.00246339
0.00212369
0.000746578
0.000750831
0.000750466
0.000755443
0.000744146
0.000743567
0.000743949
0.000745656
0.000742594
0.000742563
0.00074217
0.000746426
0.00074544
0.00074428
0.000743668
0.000760295
0.000774145
0.000803191
0.00078197
0.000798314
0.00366319
0.00367482
0.00284302
0.00272392
0.00214474
0.00111865
0.00136945
0.00156207
0.00192356
0.000838951
0.000839768
0.000849079
0.000848155
0.000891999
0.000904542
0.000987793
0.00097861
0.0010596
0.00363309
0.0034251
0.00126164
0.00328249
0.0028849
0.00263663
0.00148424
0.00179076
0.0018923
0.00263104
0.000779964
0.000766965
0.000783215
0.000769546
0.000785786
0.000774586
0.000789159
0.000789269
0.00079744
0.000794878
0.000810249
0.000809505
0.000849253
0.000876583
0.000929776
0.000902596
0.00112419
0.0013335
0.00110277
0.00174004
0.00142765
0.00132843
0.00163055
0.00146251
0.00143884
0.00252825
0.00305357
0.00350339
0.00304527
0.00267808
0.00227926
0.00180832
0.00167414
0.00184274
0.00201119
0.00259783
0.00190376
0.00203958
0.00348476
0.0035501
0.00361269
0.00369941
0.00357
0.00340342
0.0032925
0.0033026
0.0013859
0.00136692
0.00284758
0.00297163
0.00153388
0.00160468
0.00191215
0.00254644
0.00207326
0.00240977
0.000746574
0.000749734
0.00074911
0.000758531
0.000743209
0.000742991
0.000742975
0.000743889
0.000745189
0.000746442
0.000745198
0.000744522
0.000743516
0.000743389
0.000743107
0.000758545
0.000774538
0.000775696
0.000795351
0.000799023
0.000828381
0.000794208
0.00349713
0.00374795
0.00338337
0.0037104
0.00365097
0.00274268
0.00332346
0.00262607
0.00214951
0.000839941
0.00192035
0.001179
0.00174183
0.00136997
0.000881564
0.000877265
0.000904065
0.000889415
0.000923797
0.000910533
0.001037
0.00101973
0.00117758
0.00369716
0.00339329
0.00375741
0.00113376
0.00120565
0.000952392
0.00323884
0.00280112
0.00265926
0.00180214
0.00114214
0.0015786
0.0006215
0.000829655
0.00386391
0.00129106
0.000686433
0.000845293
0.000779033
0.000878034
0.000864177
0.000903243
0.000940609
0.000879643
0.000869327
0.000946054
0.000951515
0.00115134
0.00122174
0.00165754
0.00132495
0.00174596
0.00135918
0.00132099
0.00176852
0.00148423
0.00160846
0.00186911
0.00223691
0.00184451
0.00156224
0.0020308
0.00181012
0.00215263
0.00203284
0.0027416
0.00314775
0.00354055
0.00335285
0.00294897
0.00246927
0.00247817
0.00227106
0.00280535
0.00231851
0.00251923
0.00360706
0.00349861
0.0036851
0.00355564
0.00362702
0.00333159
0.00339054
0.0028782
0.00312553
0.00303486
0.00146096
0.00162585
0.00247866
0.00263932
0.00227158
0.00215563
0.00196176
0.000757579
0.000746429
0.000748848
0.000748627
0.000743112
0.000743739
0.000744834
0.000759355
0.000745966
0.000744883
0.000744501
0.000743738
0.000743854
0.000743355
0.000743828
0.000743909
0.000746841
0.00074511
0.000744488
0.000748486
0.000748046
0.000750369
0.000772599
0.000773784
0.000776639
0.000785857
0.000842004
0.000813659
0.000809474
0.000797609
0.00381267
0.00380578
0.00353948
0.00244414
0.00335111
0.00284296
0.000868828
0.000911928
0.000927732
0.00241393
0.00142183
0.00226987
0.00153817
0.0009364
0.000927232
0.00100653
0.000990394
0.00116271
0.00117514
0.00134059
0.00376686
0.00378145
0.00357349
0.00387807
0.00392545
0.003395
0.000839973
0.000904518
0.000674475
0.00293956
0.00271243
0.00207874
0.00150877
0.000864531
0.00909956
0.00821242
0.00217133
0.000903878
0.00742702
0.0052818
0.00139161
0.000908718
0.00114814
0.000911796
0.00107625
0.000993943
0.00112795
0.00126897
0.00124428
0.00176791
0.00180564
0.00150562
0.00223769
0.00173172
0.00194999
0.00250716
0.00247214
0.0027019
0.0022216
0.00239231
0.00258343
0.0028707
0.00222857
0.00242737
0.00264735
0.00234676
0.00273319
0.00243571
0.0034877
0.0031931
0.00339262
0.00330586
0.00307399
0.00305366
0.00318707
0.00305977
0.00297712
0.00365257
0.0034942
0.00341746
0.00352633
0.00349065
0.00302799
0.00328108
0.00257294
0.0027732
0.00215364
0.00228743
0.000756057
0.000753081
0.000749739
0.00075693
0.000744114
0.000746012
0.000747561
0.000755087
0.000761053
0.000745234
0.000744221
0.000744297
0.000743614
0.000744
0.000743629
0.000744639
0.000744798
0.000748055
0.00074203
0.000747125
0.00074847
0.000751021
0.000752569
0.000770395
0.00077482
0.000785787
0.000794324
0.000861216
0.000843722
0.000839116
0.000814064
0.00317582
0.00330736
0.003843
0.000924308
0.000946765
0.000938458
0.00104671
0.000986194
0.00233334
0.00297634
0.00164961
0.00209614
0.00138873
0.00128458
0.00170603
0.00167446
0.00149956
0.00370177
0.00391626
0.00394063
0.00374213
0.0037463
0.00351659
0.00302991
0.00276367
0.000616008
0.000704411
0.00239325
0.00188312
0.00145907
0.000787941
0.00915359
0.010307
0.00382676
0.00830534
0.0101749
0.00984334
0.00550973
0.00340429
0.00942713
0.00895597
0.00456707
0.00252713
0.00352393
0.00204372
0.00293895
0.00185614
0.00251722
0.00252376
0.00203772
0.00300107
0.00263623
0.00261703
0.00252042
0.0026511
0.00315505
0.00306946
0.00311577
0.00334506
0.00306547
0.00279498
0.00324
0.00342013
0.00288888
0.00317156
0.00338473
0.00308276
0.00338525
0.00361063
0.00345815
0.00359898
0.00346817
0.00357038
0.00344441
0.00345058
0.00347553
0.00355064
0.00354206
0.00315446
0.00337503
0.00269568
0.0028475
0.00216578
0.00232811
0.000759238
0.00075684
0.000756165
0.000753957
0.000749332
0.000750124
0.000753873
0.000759932
0.000764747
0.000746979
0.000741818
0.000746828
0.000742309
0.000748227
0.000744797
0.000750456
0.000746286
0.000747634
0.00074919
0.000750655
0.000752757
0.000754043
0.000775691
0.000777306
0.000785886
0.000816356
0.00080226
0.00078075
0.000912071
0.000872544
0.00087618
0.000845843
0.000952197
0.00382905
0.00337749
0.000976851
0.000937348
0.00119414
0.00115928
0.0017744
0.0021812
0.00222989
0.00211143
0.00305036
0.00257587
0.00227356
0.0025152
0.00234988
0.00394742
0.00414174
0.00377622
0.00396526
0.00323668
0.00293315
0.00237411
0.002191
0.00188974
0.00179596
0.000607638
0.00134818
0.00767586
0.0098785
0.00229532
0.00576152
0.00966998
0.0106804
0.00857528
0.00738794
0.01071
0.0102592
0.00694959
0.00582221
0.00571924
0.00380081
0.00439564
0.00351537
0.00316409
0.00331404
0.00416073
0.00345052
0.00393275
0.00334485
0.00360713
0.00363596
0.00388131
0.00378628
0.00375758
0.00362551
0.00356745
0.00335293
0.0036651
0.00381423
0.00345268
0.00361689
0.00372654
0.00359423
0.00370652
0.00358725
0.00354865
0.00355171
0.00364216
0.00363187
0.00361914
0.00326307
0.00342273
0.00276591
0.00293834
0.00222354
0.00239964
0.000788198
0.000664053
0.000759282
0.000760242
0.000759202
0.000757619
0.000756804
0.000754807
0.000755971
0.00075836
0.000763562
0.000763927
0.000780397
0.000747284
0.000746679
0.000748049
0.000748544
0.000751147
0.000749147
0.000750007
0.00075179
0.000753115
0.000754001
0.000755744
0.000775839
0.000799673
0.00080282
0.000849178
0.000793178
0.000799741
0.000950134
0.000895938
0.000904612
0.000851465
0.0010122
0.00115303
0.000902778
0.00389675
0.00373754
0.00191648
0.00161283
0.00242894
0.00319098
0.00318532
0.00282758
0.0029966
0.00342642
0.00363481
0.00305326
0.00384524
0.00446708
0.00305099
0.00354303
0.00254842
0.00224962
0.00181571
0.00166869
0.000595479
0.000906615
0.00597531
0.0092083
0.0015612
0.00343649