/*--------------------------------*- C++ -*----------------------------------*\
  =========                 |
  \\      /  F ield         | OpenFOAM: The Open Source CFD Toolbox
   \\    /   O peration     | Website:  https://openfoam.org
    \\  /    A nd           | Version:  8
     \\/     M anipulation  |
\*---------------------------------------------------------------------------*/
FoamFile
{
    version     2.0;
    format      ascii;
    class       volScalarField;
    location    "1000";
    object      p;
}
// * * * * * * * * * * * * * * * * * * * * * * * * * * * * * * * * * * * * * //

dimensions      [0 2 -2 0 0 0 0];

internalField   nonuniform List<scalar> 
4109
(
-0.00552563
-0.0177851
-0.00879463
-0.0287608
-0.0299014
-0.0185347
-0.0287133
-0.0146655
-0.0392316
-0.0397007
-0.0390221
-0.0429668
-0.00912979
-0.0228964
-0.031783
-0.0463737
-0.0507354
-0.0467457
-0.0451158
-0.0419983
-0.00271975
-0.0324539
-0.0327693
-0.0537992
-0.0546429
-0.0622757
-0.00303799
-0.00825394
-0.00559304
-0.0520832
-0.0456165
-0.0470733
-0.0299938
-0.0869044
-0.0618527
-0.0572748
-0.0622784
-0.0762927
-0.0165263
-0.00504066
-0.000179936
-0.0132386
0.000369383
-0.0561599
-0.0518686
0.0902572
-0.0558642
-0.0471481
-0.0551001
-0.076454
-0.068347
-0.0659177
-0.0717149
-0.0884865
-0.0239583
-0.0109585
-0.00519479
0.0150099
-0.00958062
-0.0210142
-0.0678259
0.06508
-0.0617054
-0.0562662
-0.0523834
-0.0337312
-0.0585354
-0.0520049
-0.0577891
-0.0537248
-0.105413
-0.0804822
-0.125726
-0.125604
-0.127186
-0.0299479
-0.0327452
-0.0231431
-0.0123229
-0.0206141
-0.0117995
-0.0150727
-0.0160036
-0.0261689
0.0156331
-0.206774
0.123733
-0.236288
-0.0080664
-0.0812752
-0.071306
-0.061589
-0.055794
-0.0534247
-0.0541244
0.0316272
-0.0531057
-0.0620716
-0.125482
-0.108882
-0.0979328
-0.139533
-0.137423
-0.145646
-0.151144
-0.034422
-0.0374114
-0.0398974
-0.0230511
-0.00477436
0.0639401
-0.0153731
-0.015621
-0.0236583
-0.0302121
-0.578983
0.11212
0.0118641
-0.0055187
-0.309732
-0.120355
0.261541
-0.0883529
-0.0778317
-0.0696302
-0.0563407
-0.0551353
-0.0465275
-0.0744507
-0.0633366
-0.0570179
-0.119957
-0.111703
-0.148661
-0.133547
-0.17818
-0.166573
-0.0415863
-0.047554
-0.0504092
-0.0340119
0.00853161
0.0595766
-0.0129594
-0.0243102
-0.0271587
-0.034529
0.0879706
0.0820125
-0.21536
-0.100514
-0.137529
0.0954413
-0.0863058
-0.0842288
-0.0757822
-0.0602046
-0.0487089
-0.0438268
-0.0397028
-0.00610197
-0.0286959
-0.10905
-0.100066
-0.148142
-0.123473
-0.166361
-0.181519
-0.214796
-0.0519706
-0.058091
-0.062735
-0.0509012
0.00797036
0.0295625
-0.0198845
-0.0237492
-0.0259071
-0.0427756
0.0191856
-0.158065
0.0161756
-0.069731
-0.0838409
-0.0218465
-0.0804201
-0.0853654
-0.0724393
-0.0459796
-0.0461513
-0.0282171
-0.0139127
-0.0107761
-0.0931416
-0.100553
-0.138661
-0.11206
-0.157516
-0.185375
-0.216392
-0.25685
-0.0662921
-0.0724697
-0.0756466
-0.0670146
-0.0157357
0.0039792
-0.0100937
-0.0119421
-0.0241709
-0.0567799
-0.0928425
-0.103663
-0.0847253
-0.0154782
-0.0943693
-0.0462696
-0.0769232
-0.0783209
-0.0945992
-0.0488305
0.0960159
0.0667225
-0.0808848
-0.0860703
-0.127785
-0.0968495
-0.147417
-0.178899
-0.215673
-0.256417
-0.302673
-0.0824366
-0.0866342
-0.0872501
-0.0800655
-0.00853455
0.0294162
0.00992309
0.0132233
-0.0989389
-0.0381475
-0.0735782
-0.0638703
-0.0630826
0.0545209
-0.13886
-0.20895
-0.0525878
-0.0851627
-0.0605302
-0.0901958
0.0603786
0.067412
-0.0634459
-0.0656692
-0.111738
-0.0768432
-0.131142
-0.169938
-0.206602
-0.249158
-0.29843
-0.349606
-0.104193
-0.0950463
-0.0917964
-0.116273
0.0209747
0.101308
-0.0172998
-0.113179
-0.0906238
-0.0616283
-0.175214
-0.129486
-0.231252
0.0634208
-0.197118
0.0100986
1.07813
-0.0566726
-0.0104098
-0.337654
-0.0965826
-0.05376
-0.0292511
-0.0864197
-0.0444911
-0.109017
-0.153137
-0.196185
-0.237444
-0.285899
-0.333436
-0.370395
-0.383057
-0.113519
-0.116788
-0.108168
-0.13405
-0.130463
0.0198017
0.100875
-0.0553885
-0.107433
-0.0841836
-0.0650619
-0.222335
-0.0284174
-0.0484438
0.402642
0.050092
1.08401
1.12376
1.13628
1.02867
1.02892
0.970498
-0.661725
-0.249252
-0.148247
-0.112637
0.014545
-0.0465861
-0.0389329
-0.0807558
-0.132178
-0.178204
-0.371165
-0.226209
-0.272023
-0.322445
-0.394559
-0.400784
-0.411587
-0.386516
-0.136861
-0.136388
-0.153337
-0.148379
-0.125035
-0.0256141
-0.0109141
-0.0909417
-0.103891
0.33538
0.11811
1.01256
-0.105046
1.19988
1.16361
1.1697
1.07779
1.19673
1.2187
-0.314772
-0.362342
-0.329394
0.946718
0.922048
0.993104
0.909699
1.01662
0.109374
0.164562
0.160874
0.0233271
-0.0275504
-0.399224
-0.104888
-0.109159
-0.155313
-0.204946
-0.360131
-0.261018
-0.310944
-0.437758
-0.419106
-0.424718
-0.437645
-0.427308
-0.437945
-0.166436
-0.159366
-0.174232
-0.165196
-0.141983
-0.122681
-0.0966773
-0.15346
-0.104101
0.778517
0.616145
1.24485
1.23212
1.15624
1.2771
1.30571
-0.247344
-0.192452
-0.194928
-0.484495
-0.319466
0.827196
0.812197
0.842612
0.942146
1.08289
-0.0893399
0.445985
0.43582
0.0322313
-0.0790087
-0.394399
-0.420991
-0.114748
-0.13112
-0.173926
-0.234481
-0.354404
-0.302883
-0.473077
-0.451141
-0.484164
-0.474632
-0.518121
-0.597439
-0.197843
-0.18565
-0.120153
-0.203052
-0.178578
-0.158232
-0.138443
-0.223373
-0.10869
-0.0777781
-0.104799
-0.26309
1.20508
1.32599
1.32308
1.2315
1.37116
1.40722
-0.79785
-0.0184651
0.187989
-0.0813366
-0.0973701
0.629676
0.410335
-0.313635
-0.168695
0.716425
0.842846
0.987772
1.16515
-0.155468
0.0240025
0.132123
-0.0274435
-0.101803
-0.401092
-0.44593
-0.129039
-0.144269
-0.191903
-0.269603
-0.354568
-0.528399
-0.491489
-0.55294
-0.553522
-0.655158
-0.867486
-0.231877
-0.244701
-0.21595
-0.123052
-0.134634
-0.174421
-0.193926
-0.15051
-0.245204
-0.215733
-0.521896
-0.250527
-0.239593
-0.0475297
1.25022
1.23369
1.16553
1.42907
1.42573
1.32478
1.4859
1.53935
-0.632193
-1.19532
0.045346
0.200334
0.072136
0.402805
0.584345
-0.0991448
0.0132977
0.711808
0.870692
1.07816
1.27831
-0.257103
-0.225599
-0.229272
-0.0576214
-0.0470703
-0.101543
-0.414458
-0.477217
-0.136765
-0.1609
-0.225899
-0.323466
-0.539987
-0.597718
-0.643846
-0.667012
-0.869574
-1.17166
-1.45112
-0.269807
-0.282382
-0.145791
-0.140718
-0.165211
-0.18529
-0.209475
-0.281764
-0.242492
-0.20274
-0.0787373
0.366399
1.32568
1.30236
1.23985
1.0701
1.16191
1.54992
1.55081
1.43842
1.59981
1.63101
-0.393952
-0.997995
-1.71279
0.550737
0.253607
0.353284
0.129776
0.18486
0.731285
0.967527
1.22463
1.41152
0.302611
-0.185634
-0.252179
-0.261234
-0.101225
-0.0214365
-0.0522452
-0.39425
-0.478089
-0.19877
-0.135459
-0.28596
-0.568169
-0.664022
-0.75627
-0.829951
-1.09995
-1.38839
-1.76807
-2.0581
-0.315273
-0.320725
-0.120825
-0.147888
-0.166039
-0.187202
-0.223573
-0.317907
-0.28329
-0.244838
-0.0486659
0.0239477
1.43191
0.967989
1.34169
1.27485
1.14739
1.67649
1.68081
1.56814
1.72251
1.73624
1.70155
-0.110434
-2.17686
-0.695747
-1.36913
0.337178
0.548057
0.369696
0.825039
1.15498
1.38506
1.56227
0.0282185
-0.113724
-0.173912
-0.141507
-0.0751172
0.0937303
0.0345612
-0.481615
-0.371779
-0.264576
-0.182755
-0.601862
-0.736971
-1.0028
-0.873077
-1.30769
-1.9673
-1.62658
-2.26242
-2.50004
-0.359503
-0.356449
-0.355654
-0.134692
-0.155794
-0.195297
-0.246835
-0.320963
-0.282249
-0.0871856
-0.0732892
1.55516
1.43179
0.823147
0.95587
1.33539
1.21941
1.04433
1.79482
1.78987
1.70895
1.8459
1.84024
1.81666
0.159232
-2.72913
-0.336219
-1.7828
-0.950588
0.495331
0.658601
0.394385
1.02794
1.33459
1.55793
1.73007
0.02004
-0.0202903
-0.0982758
-0.101893
0.0295367
0.178457
-0.00219859
-0.511469
-0.358927
-0.268908
-0.680555
-0.836275
-1.16743
-1.00336
-1.55573
-1.96383
-2.32628
-2.73534
-3.09729
-0.40083
-0.393446
-0.395972
-0.364706
-0.14204
-0.163158
-0.218339
-0.280974
-0.323083
-0.0767617
-0.0420909
1.67774
1.58293
1.51712
1.4146
0.634726
0.815364
0.926453
1.29246
1.15714
1.00566
0.422227
1.88457
1.8723
1.79093
1.85988
1.9549
1.91882
1.95469
0.057253
-2.27516
-0.50816
-1.31447
0.657119
0.862887
0.429416
1.91293
1.22049
1.53128
1.75988
0.0455848
-0.0418636
-0.0820085
-0.0520323
-0.163869
0.0327601
0.055653
-0.533821
-0.345801
-0.896351
-0.758475
-1.31851
-1.66381
-1.15533
-2.21195
-2.84308
-3.36355
-0.416143
-0.449723
-0.444613
-0.415408
-0.373078
-0.156798
-0.182062
-0.254287
-0.324308
-0.0770644
-0.0296268
-0.396459
-0.33943
1.69519
1.61907
1.50285
1.37961
0.643445
0.811421
0.945426
1.233
1.0889
0.456409
0.208152
0.00851147
-0.159775
-0.274231
1.91068
1.94414
1.87875
1.80043
2.09573
2.0067
2.03676
2.00007
-0.0355279
-1.7394
-0.792524
1.04828
0.784005
0.64227
0.382557
2.20323
1.9837
1.4466
1.78037
0.0311217
-0.110737
0.0175454
0.498226
-0.351408
-0.0492698
-0.725061
-0.49376
-1.56096
-1.15114
-1.9296
-2.78934
-3.50482
-0.464141
-0.490459
-0.474009
-0.433667
-0.378846
-0.177057
-0.220484
-0.303501
-0.057372
-0.0712683
-0.333853
-0.4403
-0.370951
1.71408
1.60612
1.47791
1.32234
0.661729
0.834443
1.00274
1.15683
0.497117
0.254798
0.334113
-0.33071
0.0553579
-0.244255
-0.113764
1.89925
1.96492
1.81812
2.03621
2.25054
2.12712
2.0812
2.38182
-0.247168
-1.1401
1.2813
1.15735
1.02128
0.999857
0.32003
2.07158
2.34373
1.7811
0.219203
0.148042
0.901396
0.566194
-0.251418
-0.39129
-0.877447
-0.565322
-1.67141
-2.56346
-3.49927
-0.519017
-0.532512
-0.505369
-0.451446
-0.368828
-0.228827
-0.280317
-0.093549
-0.106753
-0.410886
-0.520064
1.83138
1.71879
1.58647
1.42853
1.23835
0.691771
0.884589
1.06015
0.535192
0.378899
0.189412
-0.415982
-0.367137
0.0386703
-0.277908
-0.137244
1.92422
2.00417
1.94486
2.12192
2.55428
2.39939
2.23118
2.53106
1.94687
-0.483687
1.71695
1.59082
1.43889
0.940443
0.234391
2.36234
2.20653
2.52625
0.198204
0.635975
2.16074
0.458304
0.476324
-1.23442
-0.769017
-2.15883
-3.33793
-0.586942
-0.581588
-0.544621
-0.46224
-0.297978
-0.36242
-0.155435
-0.149017
-0.521794
-0.627493
1.83649
1.71228
1.55034
1.33488
1.13112
0.739159
0.93549
0.574031
0.382215
0.187962
-0.503425
-0.44106
0.000284506
-0.334064
-0.182921
2.08377
2.02872
2.28307
2.93895
2.71644
2.73419
2.55359
2.00294
1.88105
1.55941
0.983614
2.284
2.72103
3.03332
0.121126
0.849284
-0.1296
-0.198472
-1.67496
-0.96369
-2.98832
-0.655569
-0.645685
-0.590306
-0.295431
-0.454017
-0.34625
-0.648007
-0.720246
1.69424
1.84753
1.45844
1.20407
0.998557
0.783551
0.603355
0.395243
0.171284
-0.626171
-0.554581
-0.0554728
-0.432068
-0.262069
2.13777
2.23396
2.52651
3.24889
2.98236
2.83351
3.49526
2.04467
2.12944
1.73272
2.66912
3.11736
3.54224
-0.208108
0.0810803
0.121328
-0.195689
-2.39658
-1.35416
-0.746013
-0.717091
-0.486904
-0.60319
-0.620891
-0.760391
-0.842685
1.63035
1.82903
1.32172
1.07383
0.837353
0.638555
0.401969
0.141277
-0.753568
-0.684867
-0.120079
-0.550392
-0.357085
2.2532
2.42313
2.8093
3.51111
3.17328
3.92379
2.02953
2.44924
3.13036
3.71765
4.23682
-32.2647
-0.239648
0.284265
0.336286
-0.404799
-31.5188
-0.852412
-0.764678
-0.888729
-1.00573
-0.709474
-0.911955
-0.99335
1.75144
1.51229
1.1967
0.910347
0.689462
0.412438
0.106101
-0.92402
-0.853378
-0.198227
-0.699435
-0.474763
2.6542
2.34257
3.29015
3.97103
4.59891
2.52077
2.07565
-34.3521
-32.265
-0.148059
0.149128
0.193331
-29.4858
-31.3936
-31.7484
-0.98905
-1.03991
-1.17241
-1.19744
-0.824903
-1.11753
-1.19038
1.71655
1.41373
1.03315
0.77931
0.429976
0.0516657
-1.1748
-1.09384
-0.311317
-0.638376
-0.905783
3.09206
3.90918
4.7334
2.93845
2.5173
2.07913
-35.3384
-34.4216
-32.2659
-0.504032
-28.8948
-31.1342
-33.9285
-30.9594
-1.32356
-1.49496
-1.54122
-1.34406
-1.42986
-1.46545
1.64136
1.24325
0.941326
0.470085
-0.00753216
-1.56696
-1.43706
-0.448918
-0.842995
-1.1765
3.75831
4.71493
2.85152
3.50993
2.52586
2.06906
-36.1757
-35.4853
-34.4556
-32.2499
-35.0411
-27.4367
-28.6532
-30.8817
-34.0641
-30.7473
-1.76569
-1.98058
-2.32025
-1.9277
-1.76913
-1.93903
1.51362
1.01732
0.454198
-0.102743
-2.15628
-1.86628
-0.628149
-1.10119
-1.51599
4.54755
3.21387
4.20032
2.76771
2.20234
-36.1856
-35.6101
-34.4721
-32.2296
-33.8681
-35.2817
-27.5701
-27.4382
-28.5249
-30.6546
-33.9775
-30.7323
-2.30477
-2.89548
-2.43801
-2.56347
-2.69967
1.60741
1.00508
0.377223
-0.258367
-2.53269
-2.25113
-0.862454
-1.40864
-1.88448
3.72429
3.13597
2.45532
-38.8088
-36.0602
-35.6968
-34.4821
-32.2066
-33.9368
-35.4449
-25.452
-27.6082
-27.4076
-28.4329
-30.4475
-33.8518
-30.6517
-3.21613
-3.36435
-3.41113
-3.36235
1.74578
1.00959
0.259506
-0.472614
-3.13207
-2.76573
-1.15585
-1.77289
-2.315
-41.6612
-38.9168
-35.9433
-35.7584
-34.4936
-32.184
-34.0725
-35.6046
-25.0131
-25.4711
-27.6376
-27.3597
-28.3608
-30.2623
-33.7074
-30.4832
-46.3566
-41.8575
-38.9898
-35.8559
-35.8038
-34.5076
-32.1609
-34.1867
-35.777
-21.0321
-25.1932
-25.4864
-27.6408
-27.333
-28.2892
-30.1434
-33.5588
-30.2811
-49.0537
-46.2016
-41.97
-39.0506
-35.7971
-35.8392
-34.5239
-34.273
-35.9664
-25.3542
-20.8343
-25.3255
-25.4858
-27.6249
-27.3225
-28.2126
-33.4392
-94.1987
-48.6178
-46.1773
-42.0502
-39.0801
-35.7588
-35.8621
-34.3232
-36.141
-20.0995
-26.1354
-20.8431
-25.3895
-25.4844
-27.5999
-27.3284
-33.3858
-30.5461
-103.5
-47.5058
-46.2373
-42.111
-39.0858
-35.7392
-34.3241
-21.6877
-20.2191
-26.9601
-20.8723
-25.4138
-25.485
-27.5748
-27.3353
-44.526
-30.9095
-112.46
-46.2842
-46.3209
-42.1429
-39.0751
-34.2933
-20.946
-21.7545
-20.2884
-27.7463
-20.9071
-25.4157
-25.4918
-27.5653
27.5353
-52.1169
-30.5402
-120.555
-45.0495
-46.3955
-42.1506
-39.051
-20.8956
-20.9036
-21.8329
-20.3598
-28.4751
-20.9518
-25.4092
-25.4998
35.071
30.6573
-60.6026
-29.9498
-127.693
-43.8001
-46.4017
-42.1343
-20.475
-20.8399
-20.8634
-21.888
-20.4458
-29.1813
-20.9807
-25.4182
47.3691
36.21
33.8083
-68.4837
-29.2353
-134.432
-42.6544
-46.3368
-20.4794
-20.4062
-20.7852
-20.8296
-21.9262
-20.5426
-29.8646
-20.9702
50.0482
48.238
37.3985
36.1821
-75.661
-28.3785
-141.487
-41.8851
-20.9048
-20.408
-20.3331
-20.7321
-20.804
-21.9543
-20.6371
-30.2904
49.9713
50.6037
49.1479
38.3966
38.2136
-82.6947
-27.608
-146.791
-20.9509
-20.8468
-20.333
-20.2652
-20.682
-20.7849
-21.9761
-20.7058
47.5856
50.5681
51.2196
49.8829
39.3481
40.1642
-90.4808
-27.5197
-21.6873
-20.9054
-20.7908
-20.2639
-20.2053
-20.6369
-20.7692
-21.9907
34.7832
48.3182
51.1634
51.7781
50.4763
40.3225
42.1365
-97.0173
-20.0307
-21.7583
-20.8638
-20.7361
-20.2029
-20.1535
-20.6018
-20.7578
27.2708
35.8928
49.184
51.7054
52.2664
50.9714
41.2986
43.603
-25.3212
-20.1155
-21.8373
-20.8292
-20.6841
-20.1502
-20.1151
-20.5846
-44.2477
30.3254
37.057
49.896
52.1828
52.6959
51.3563
41.8971
-20.9838
-26.157
-20.1784
-21.8939
-20.8032
-20.637
-20.111
-20.0973
-30.395
-51.993
33.3999
38.0025
50.4733
52.6041
53.0523
51.5789
-24.8724
-20.7772
-26.9937
-20.2458
-21.9342
-20.7839
-20.6
-20.0929
-94.0435
-30.9925
-60.5058
35.6646
38.8869
50.9453
52.9529
53.2536
-25.3461
-25.0535
-20.779
-27.7794
-20.3264
-21.9649
-20.7683
-20.582
-48.9832
-103.72
-30.7075
-68.33
37.5641
39.8296
51.3179
53.15
-27.499
-25.3711
-25.1818
-20.8062
-28.506
-20.4159
-21.9891
-20.7567
-45.7034
-48.4488
-112.74
-30.158
-75.4063
39.3432
40.7796
51.5302
-27.2305
-27.525
-25.387
-25.2412
-20.8415
-29.2088
-20.5056
-22.0048
-41.5733
-45.5557
-47.2376
-120.847
-29.4799
-82.3685
41.0085
41.387
-30.5484
-34.2784
-27.2381
-27.5551
-25.3881
-25.2629
-20.8856
-29.8785
-20.568
-38.2667
-41.7373
-45.5412
-45.9565
-128
-28.6553
-90.0261
42.2468
-28.1868
-30.4813
-34.3092
-27.2069
-27.5611
-25.3883
-25.2598
-20.9128
-30.2914
-33.8463
-38.3883
-41.8278
-45.6022
-44.663
-134.734
-27.8875
-96.5388
-34.618
-30.9783
-27.8688
-30.5522
-34.2399
-27.1585
-27.5477
-25.3907
-25.2523
-20.9022
-33.744
-38.4693
-41.8974
-45.6837
-43.3628
-141.797
-27.7816
-34.9758
-35.8008
-31.762
-30.7786
-27.7509
-30.5078
-34.1584
-27.1319
-27.5247
-25.3977
-25.2595
-35.2408
-34.074
-33.8621
-38.5343
-41.9487
-45.7503
-42.1561
-147.122
-35.1535
-35.8482
-31.7157
-30.5065
-27.6503
-30.3765
-34.0501
-27.1252
-27.5016
-25.4067
-35.3258
-34.1496
-33.9885
-38.5678
-41.9797
-45.7471
-41.3805
-35.2998
-35.7409
-31.6814
-30.2655
-27.5756
-30.1886
-33.9328
-27.1294
-27.4919
-35.4436
-34.1573
-34.0844
-38.5792
-41.9883
-45.6717
-35.4561
-35.6247
-31.6529
-30.0522
-27.5268
-29.9808
-33.8416
-27.1353
-35.5339
-34.1647
-34.1406
-38.5698
-41.9723
-35.6291
-35.536
-31.6252
-29.8545
-27.4761
-33.8068
-35.5983
-34.1716
-34.1476
-38.5469
-35.7906
-35.4779
-31.596
-29.684
-27.4103
-35.6455
-34.1825
-34.1185
-35.4412
-31.5623
-29.5732
-35.6824
-34.198
-35.4228
-31.5391
-35.7072
-34.2147
-3.24586
-3.63073
-3.68275
-4.19674
-4.17457
-4.74415
-3.17535
-3.64223
-2.71866
-3.96208
-4.02904
-4.5825
-4.67165
-5.3357
-5.33724
-6.00504
-8.06803
-8.83653
-8.89835
-9.81505
-9.63709
-5.98524
-6.66296
-4.71275
-5.33211
-3.56042
-4.09321
-2.60607
-3.01756
-2.1346
-10.5688
-10.2024
-4.15341
-4.34028
-4.93672
-5.04413
-5.65688
-5.87286
-6.63743
-6.66348
-7.42921
-7.37079
-8.08256
-8.83276
-9.61843
-9.60839
-10.4496
-10.6307
-11.6345
-11.5287
-6.60722
-7.32349
-7.29111
-8.08197
-8.01415
-8.80407
-9.29221
-5.21734
-5.84889
-3.91406
-4.47648
-2.83579
-3.26715
-1.94167
-2.27291
-1.46082
-8.67399
-9.07601
-12.4996
-13.4218
-10.1384
-10.9281
-11.8954
-4.2376
-4.47178
-5.09507
-5.33611
-6.03494
-6.14469
-6.88767
-7.18556
-8.0145
-8.09761
-8.89394
-9.66628
-10.5085
-10.4648
-11.305
-11.26
-12.2286
-12.3961
-13.0996
-13.4251
-14.525
-14.0351
-14.909
-5.69054
-6.47563
-6.58338
-7.26243
-7.45612
-4.27024
-4.89183
-3.01252
-3.50782
-2.01572
-2.36246
-0.702974
-1.18488
-1.44936
-7.12539
-7.89894
-7.64736
-8.80002
-10.1679
-14.4857
-12.542
-13.9354
-11.4015
-12.5702
-4.1501
-4.49874
-5.16373
-5.45793
-6.18217
-6.48147
-7.21241
-7.41552
-8.22838
-8.50191
-9.18467
-9.66826
-11.2126
-10.8345
-12.2379
-12.2533
-13.322
-13.248
-13.886
-14.6733
-15.1383
-15.1984
-16.1151
-15.8287
-15.6713
-16.2352
-16.3607
-17.5617
-4.90707
-5.73062
-5.33329
-6.04827
0.142218
-0.340143
-3.35212
-4.08544
-2.02912
-2.50953
-0.516191
-1.08597
-1.35679
1.03105
0.585353
-5.67167
-6.46383
-6.31791
-18.7047
-17.6333
-19.342
-7.67301
-8.9826
-10.2801
-11.4593
-13.7469
-14.8803
-16.5572
-15.8937
-12.7156
-13.8039
-3.91403
-4.33888
-5.0582
-5.45958
-6.21865
-6.55706
-7.31831
-7.64115
-8.73916
-8.41109
-9.62095
-9.81807
-10.7202
-11.2802
-12.8968
-12.3753
-13.8426
-13.9609
-14.6457
-15.2242
-15.0921
-20.674
-21.0839
-19.8244
-16.1998
-15.9703
-16.9606
-16.9213
-17.2805
-18.0892
-17.6739
-19.815
-19.0678
-29.4932
-30.2221
-29.8764
-32.5017
-31.3186
-30.8582
-31.0881
-30.7757
-3.67908
-4.2642
-3.72092
-4.40798
0.510499
-0.0600559
-2.11786
-2.69309
-0.254037
-0.94176
-1.26793
1.92353
1.54966
1.57423
1.06378
-3.95023
-4.83739
-7.67653
-4.49666
-6.02218
-29.19
-27.6119
-23.5568
-22.7977
-21.4132
-17.0134
-18.412
-19.1837
-20.6403
-7.8971
-8.99915
-8.85265
-10.3855
-11.7216
-13.0265
-14.3319
-15.1541
-16.5302
-29.9027
-30.8707
-32.4359
-30.7903
-32.2262
-33.8917
-32.7428
-31.8981
-33.1644
-32.9858
-3.3901
-4.00844
-4.81935
-5.31781
-6.14167
-6.5699
-7.48425
-7.77383
-8.57456
-8.85299
-10.2451
-9.77529
-11.0991
-11.2574
-12.2718
-12.8459
-12.8837
-14.2251
-13.8143
-14.9883
-15.6972
-15.6459
-16.6713
-16.7531
-16.3874
-22.033
-22.9562
-25.0851
-24.2155
-21.6892
-20.7715
-17.6976
-17.7789
-18.3883
-18.6538
-20.6361
-19.4413
-19.1158
-25.6765
-27.6704
-27.2287
-27.782
-27.1626
-29.2516
-29.5022
-30.0809
-32.1819
-31.2032
-31.6291
-31.3437
-31.751
-31.8619
-32.3999
-32.0801
-31.6309
-31.7503
-2.04826
-2.55808
-1.84372
-2.54375
1.00964
0.317104
0.146467
-0.662692
-0.968598
2.7648
2.45263
2.58174
2.15463
2.24388
1.69474
-1.70574
-2.33235
-3.65048
-3.98217
-5.5162
-6.41315
-2.94644
-24.8104
-27.264
-26.1762
-30.0212
-28.6883
-24.0925
-25.2858
-23.4648
-21.4945
-6.47713
-21.2385
-17.4419
-19.8221
-18.7786
-7.55952
-8.53773
-10.0853
-10.5762
-12.1437
-12.5931
-14.3825
-15.3739
-17.1312
-30.1225
-31.0012
-29.9898
-32.9845
-32.7027
-34.2815
-32.4618
-32.3238
-31.5174
-32.0575
-33.2862
-32.981
-2.72711
-3.37153
-2.13884
-2.1967
-4.3295
-5.03806
-6.00759
-6.4879
-7.49897
-8.03246
-9.11825
-9.23683
-10.5306
-11.3783
-10.2574
-12.0175
-12.6194
-13.5726
-14.0944
-14.9095
-13.562
-14.1006
-15.5954
-15.6352
-15.6598
-16.4758
-16.3506
-16.4509
-16.4367
-17.1852
-17.2964
-18.0032
-18.3694
-22.6254
-23.6163
-24.6986
-24.0703
-22.2985
-21.6061
-19.337
-19.6441
-21.434
-20.4564
-20.3661
-25.5168
-25.1597
-25.5709
-28.3521
-27.2055
-29.0677
-28.8397
-30.5396
-27.628
-30.0968
-30.3886
-31.828
-31.4263
-31.0729
-32.326
-30.4023
-31.4989
-0.446975
-0.250184
-0.65461
0.0266115
1.68479
0.926444
0.734946
0.287585
3.58246
3.34703
3.60377
3.24964
3.45461
2.96513
3.07632
2.41724
4.30782
4.16589
4.89193
4.91475
5.47967
5.33386
1.08557
-0.514648
-1.29952
-1.34178
-5.19547
-3.45049
-1.57573
-0.795441
-28.7031
-28.271
-26.6533
-22.4929
-25.765
-24.2932
-4.91009
-6.66221
-8.43724
-22.7883
-18.6246
-21.2124
-19.9829
-10.1922
-11.2516
-12.7707
-13.275
-14.8994
-15.4481
-17.4561
-29.0437
-32.7864
-33.4222
-32.2911
-31.3097
-34.3232
-35.3255
-34.4927
-35.3088
-33.1499
-33.128
-33.7083
-34.4414
-34.0559
-1.31339
-1.82504
-4.31692
-4.37162
-3.13017
-3.73056
-5.69138
-6.24898
-8.05072
-8.09694
-9.19463
-9.67033
-11.2753
-11.2279
-12.1142
-12.7023
-13.6689
-13.9916
-14.9164
-14.7593
-15.5105
-16.1128
-17.0365
-16.6909
-17.3188
-16.9804
-17.6931
-17.7274
-17.9605
-17.8897
-18.6799
-19.0215
-19.6712
-20.0498
-24.219
-22.9579
-23.8437
-23.2656
-22.2574
-20.6509
-21.6444
-21.0745
-21.4847
-26.3884
-24.9482
-27.462
-25.9351
-27.9533
-28.18
-27.4721
-31.0978
-28.926
-32.9833
-31.1009
5.53863
5.80876
0.937497
1.14201
2.43952
1.68925
1.82154
2.12568
2.42184
4.50848
4.21142
4.51572
4.12584
4.3982
3.88198
4.1292
3.45826
5.35363
5.21137
6.02204
6.033
6.63205
6.44332
2.96233
2.53486
2.46632
0.681716
-3.1027
-1.53251
0.144348
1.39323
-24.785
-26.8095
-28.0088
-3.18127
-5.21567
-7.0829
-9.13872
-11.0026
-22.6425
-24.4846
-18.9065
-21.7456
-13.0305
-14.2434
-16.4309
-16.8463
-19.0901
-28.895
-31.1343
-30.6944
-33.8539
-31.3618
-32.9547
-34.7694
-34.769
-35.4694
-33.5292
-34.5968
-34.8238
-35.2308
-34.0464
-1.11875
-3.10766
-2.28275
-1.9289
-2.37125
-4.07375
-4.97328
-5.35534
-4.07636
-5.21513
-7.91597
-8.15881
-9.57587
-9.05055
-11.9394
-12.1848
-14.3293
-13.2977
-13.2779
-14.0696
-14.2859
-15.3111
-15.6206
-16.3272
-16.7444
-17.7601
-18.3191
-18.2202
-17.9995
-18.5863
-18.7005
-18.2654
-19.5402
-19.4504
-19.4755
-19.9386
-21.3648
-24.7535
-24.3196
-23.3043
-22.1139
-21.5299
-22.9518
-22.6219
-22.0837
-25.5904
-25.4588
-27.4207
-26.5519
-27.7075
-27.8245
-27.9487
-27.6447
5.54596
5.92713
6.58895
6.9302
3.64164
3.01876
3.33152
4.38175
4.28328
5.67191
5.39445
5.84893
5.26864
5.54035
4.88505
4.99266
6.4897
6.59671
7.34005
7.2957
8.01684
7.68692
6.15544
4.91556
4.2366
3.41029
4.6543
7.65326
-1.38447
0.278733
2.41958
4.097
-1.23029
-28.6328
-26.4843
-2.97518
-5.26852
-7.45749
-9.7872
-12.8664
-14.974
-14.4774
-21.3761
-26.0304
-23.6714
-17.8402
-18.4125
-21.0287
-32.076
-30.0405
-35.1524
-33.6909
-35.771
-35.8093
-36.2897
-35.4078
-35.5229
-34.1931
-2.96197
-2.40504
-2.71753
-3.80313
-3.9258
-3.30225
-4.04318
-5.79634
-6.84298
-8.02891
-6.40469
-8.10699
-8.09578
-8.95644
-12.9796
-12.2198
-13.7296
-13.8965
-16.7879
-15.0264
-14.9023
-14.1798
-16.1609
-17.6109
-17.1409
-18.3705
-18.5555
-18.3425
-19.1781
-18.3718
-19.5181
-20.0207
-20.0725
-18.8873
-20.6721
-20.0732
-20.5785
-21.7556
-22.7891
-25.8159
-25.0824
-21.8759
-21.9963
-22.9007
-22.4477
-26.0442
-25.8582
-27.1042
-26.2771
-27.6018
-27.024
-3.52461
-3.58802
5.33693
5.8453
6.4793
6.9426
7.66374
8.21514
5.93675
5.79176
6.73571
7.81351
8.4232
7.10385
6.82604
7.31724
6.60161
6.98222
8.08868
8.08855
8.91688
8.828
9.67024
9.11297
9.63748
7.68155
6.26793
6.63215
10.3777
9.55668
1.01529
2.95377
5.67359
7.28253
1.34174
-0.6742
-2.81174
-32.5139
-28.7714
-5.77829
-8.82405
-12.1891
-14.4489
-18.3938
-19.8283
-23.5838
-27.3934
-30.452
-25.1542
-37.7245
-35.2126
-38.5727
-38.8509
-39.2725
-38.1082
-39.157
-38.3112
-4.27595
-4.0099
-5.15744
-5.22627
-6.0755
-5.42181
-6.28767
-7.718
-8.60599
-9.71066
-8.44401
-9.7038
-13.7158
-11.0149
-12.1967
-13.1329
-14.1216
-14.0966
-15.2848
-17.5689
-16.0669
-17.4424
-15.9045
-18.7198
-18.0556
-20.3242
-18.7623
-19.6464
-18.9583
-19.1355
-19.0221
-20.0184
-20.4159
-20.3668
-20.5309
-20.1745
-21.343
-21.1701
-21.8743
-22.166
-23.4163
-22.3349
-24.4359
-23.5142
-23.668
-25.2537
-24.9842
-25.6186
-25.0959
-3.96968
-4.14328
-4.96286
-4.97744
4.89102
5.49137
6.07465
6.64265
7.29589
7.9629
9.50866
8.81022
4.26661
4.88394
10.5926
10.2088
8.37191
8.90381
8.89813
8.5664
9.14998
10.082
9.89421
10.8811
10.6276
11.2734
10.4375
12.0966
12.5921
13.4432
12.5794
9.35104
10.3838
6.28128
4.27675
10.6658
9.09463
5.24975
2.71935
-1.2452
3.60341
-4.17379
-6.89651
-37.665
-33.9458
-11.215
-15.7192
-22.5877
-24.4366
-33.6072
-38.5545
-32.8653
-40.0558
-40.1603
-41.7193
-41.1778
-42.4645
-41.1601
-5.8296
-6.27289
-6.9398
-7.10013
-8.14578
-7.57008
-9.01231
-9.86165
-10.8745
-11.9171
-10.8859
-11.9217
-14.8413
-13.8834
-13.1861
-14.1678
-17.7725
-14.9721
-15.3148
-16.9481
-16.4472
-18.2113
-17.5176
-17.8127
-17.8391
-19.3172
-18.8142
-19.9261
-20.1169
-19.7134
-19.7867
-19.5006
-19.4637
-20.4533
-20.6236
-20.6927
-21.0348
-20.462
-20.7017
-20.3002
-21.8394
-21.3494
-23.6237
-22.4724
-24.8206
-23.5628
-21.8939
-25.1021
-24.6011
-4.25649
-4.48748
-5.1901
-5.41177
-6.17926
-6.38946
5.38567
6.0701
6.62475
7.3639
10.8194
9.01123
9.97642
8.13391
3.53247
4.12769
4.52502
5.22389
2.72014
3.31086
1.86008
2.43019
12.5972
11.2472
10.8665
11.8516
11.1175
11.9154
12.3877
12.0626
13.2517
12.4735
12.78
12.0873
11.9025
14.0743
15.0235
15.2649
16.546
15.9715
13.745
13.0907
10.0425
8.12261
14.4239
13.0939
8.91786
6.52376
-0.338522
-5.23709
6.46844
2.59481
-8.62208
-14.0402
-45.4933
-42.8898
-23.2686
-31.7556
-40.888
-46.3099
-39.8158
-46.5123
-44.4701
-46.5782
-46.2464
-7.34985
-8.14236
-10.2955
-10.3689
-9.39437
-9.40576
-11.1454
-12.1634
-13.079
-13.9293
-13.4557
-14.1667
-16.0183
-15.0059
-14.7024
-15.2934
-18.0291
-17.8744
-16.9313
-18.3759
-16.929
-17.42
-18.6677
-18.9724
-18.2248
-19.4561
-19.4388
-20.6804
-20.2696
-20.2718
-20.1972
-20.1401
-20.7638
-20.7287
-20.5582
-20.7428
-20.6372
-20.4164
-21.2072
-20.5915
-21.2826
-23.6548
-21.4739
-21.8076
-25.1752
-21.7162
-7.75915
-4.21381
-4.50961
-5.23151
-5.5765
-6.3261
-6.63553
-7.32632
-4.1883
-4.47528
-3.99069
-4.35275
-3.66252
-4.06635
0.99918
1.49229
0.142322
0.564627
-0.693544
-0.31997
-1.44519
-1.16719
-3.25861
-3.70184
-2.72527
-3.1915
-2.12815
-1.92242
-2.60441
5.69236
6.5465
7.17844
8.15372
10.0918
11.0196
8.97838
3.60313
4.29662
4.67352
5.43415
2.59116
3.24988
1.52333
2.12791
10.8862
13.5848
14.9985
13.7235
14.2236
13.8431
15.3961
14.7669
15.8244
14.9626
13.1421
13.3447
11.869
16.4372
16.8014
17.1483
18.4923
18.3644
20.0894
20.09
17.7337
17.2833
14.4042
12.341
18.9293
17.5936
12.6529
9.80446
-10.5547
-1.33909
-8.99332
8.38534
2.89136
-20.5208
-24.859
-47.9696
-50.3379
-35.65
-66.0241
-55.9178
-54.3649
-47.0295
-8.80465
-9.57305
-11.707
-11.8949
-12.0002
-10.7178
-11.4614
-13.5252
-13.9986
-15.1059
-15.3916
-15.009
-15.9805
-15.6781
-16.3765
-17.1861
-16.2462
-19.4228
-18.874
-17.727
-18.0844
-18.8927
-18.5419
-19.5074
-19.4554
-20.3976
-20.4058
-20.574
-20.4707
-20.9516
-20.936
-20.854
-21.1641
-20.8933
-20.9762
-20.9466
-20.6487
-21.0693
-20.6536
-20.4975
-24.7958
-20.7208
-9.10722
-7.58401
-8.393
-5.12771
-5.53722
-6.25119
-6.64345
-7.31374
-4.90188
-5.29945
-4.6179
-5.06323
-4.2067
-4.68126
0.490208
1.00585
-0.481662
-0.0617754
-1.43846
-1.06224
-2.23587
-2.01424
-3.65911
-4.1719
-3.00608
-2.78906
-3.5509
5.86949
6.89501
7.4532
8.7294
9.54696
3.47652
4.25563
4.5208
5.42516
2.19431
2.9144
0.880293
1.54906
8.93772
11.2183
9.77527
17.2388
16.9909
16.443
18.2498
17.4588
18.0426
15.9734
14.3296
14.0974
12.2725
20.2416
18.9361
19.0987
21.9499
21.8838
23.9662
24.0697
22.1816
22.3317
19.142
17.1107
24.1615
22.6572
17.4522
13.8707
-13.202
-21.7799
-2.25058
-12.1036
11.1009
3.37565
-28.9589
-30.77
-40.591
-88.0958
-80.3689
-10.0494
-10.6887
-11.6254
-12.7157
-13.4406
-13.2072
-13.2447
-12.6658
-16.0333
-16.6181
-17.2017
-17.2175
-16.4483
-17.7422
-17.0524
-17.8942
-18.2165
-18.5565
-18.2505
-18.0682
-19.7488
-19.4171
-18.8845
-19.0888
-19.7538
-19.4581
-20.1562
-20.434
-20.6424
-20.6632
-21.1703
-21.004
-21.0396
-21.1585
-21.3942
-21.352
-21.4024
-21.3282
-20.0126
-21.5894
-20.8313
-30.2168
-9.04457
-9.89534
-7.73254
-8.62656
-5.97456
-6.44378
-7.29537
-5.77223
-6.28693
-5.3133
-5.8946
-4.6818
-5.26815
-0.256859
0.223645
-1.33295
-0.913954
-2.38881
-2.01816
-3.21921
-3.03607
-4.02491
-3.85173
-4.61147
5.77095
7.012
7.64154
7.18976
3.00302
3.87761
4.05544
5.09827
1.49539
2.27887
0.00991267
0.794488
9.28727
7.84056
11.6019
10.0801
17.4609
17.4246
21.0669
20.3187
19.6558
18.7301
21.3936
21.0738
12.4159
16.8182
15.2396
14.1313
23.3775
23.2562
25.811
25.5314
27.0572
27.9209
26.5291
28.015
24.0456
22.3474
28.7698
27.5443
23.6857
19.7723
21.5727
-18.8571
-28.668
14.0523
-6.01388
-17.6861
-32.4302
-28.5682
-13.8438
-10.2153
-11.0372
-11.7308
-12.7174
-13.5967
-15.8988
-14.4705
-15.3554
-17.6882
-17.2394
-18.7454
-18.8112
-17.2565
-18.572
-19.0894
-19.2028
-19.3565
-18.9373
-19.2442
-19.4969
-19.394
-19.3511
-20.2227
-20.0235
-19.7605
-19.8391
-20.1589
-21.0469
-20.5757
-20.7631
-21.093
-21.1077
-21.2588
-21.2514
-21.0583
-21.1736
-21.8582
-21.1548
-9.09781
-9.81628
-7.19864
-7.74013
-8.6382
-6.59882
-7.23834
-5.91436
-6.57185
-5.1819
-5.8541
-1.20343
-0.725067
-2.43311
-1.98623
-3.54264
-3.23914
-4.36926
-4.22758
-5.05659
7.10484
5.32774
6.21106
5.82708
2.31198
3.19709
4.16774
3.38223
0.712636
1.52911
-0.998581
-0.213793
9.06766
7.08373
5.74603
11.391
9.63988
17.916
20.6902
19.5939
20.4599
24.9506
23.5945
24.7894
22.6733
22.949
14.9555
12.4512
17.6636
16.3104
19.257
27.6155
27.1457
30.8649
33.3154
30.4053
31.1765
31.7832
32.4785
33.4587
28.7871
29.7447
29.9143
25.5522
27.166
25.8579
21.4427
-21.5794
-39.7416
-36.1986
-15.8406
-10.2798
-14.3901
-14.8857
-11.3051
-11.5931
-12.444
-12.9815
-13.6725
-14.3132
-16.1824
-15.9588
-17.5462
-17.253
-19.7561
-19.7995
-18.7249
-18.9646
-20.1946
-20.0086
-19.3653
-19.3413
-20.0047
-20.0904
-20.1314
-20.6619
-20.5213
-20.3407
-20.559
-20.9247
-20.8011
-21.1011
-21.0362
-21.0023
-20.9779
-21.0237
-21.0601
-10.2808
-8.00858
-8.60073
-9.36117
-9.66483
-7.3063
-8.02465
-6.5066
-7.21048
-5.64956