/*--------------------------------*- C++ -*----------------------------------*\
  =========                 |
  \\      /  F ield         | OpenFOAM: The Open Source CFD Toolbox
   \\    /   O peration     | Website:  https://openfoam.org
    \\  /    A nd           | Version:  8
     \\/     M anipulation  |
\*---------------------------------------------------------------------------*/
FoamFile
{
    version     2.0;
    format      ascii;
    class       volScalarField;
    location    "5000";
    object      epsilon;
}
// * * * * * * * * * * * * * * * * * * * * * * * * * * * * * * * * * * * * * //

dimensions      [0 2 -3 0 0 0 0];

internalField   nonuniform List<scalar> 
4109
(
0.117471
0.131148
0.120867
0.129887
0.135539
0.13151
0.136725
0.120775
0.145299
0.145116
0.143158
0.147259
0.120016
0.1347
0.139663
0.150927
0.151605
0.150014
0.151986
0.14115
0.121785
0.130575
0.131762
0.158831
0.160146
0.165314
0.12004
0.133826
0.118558
0.160476
0.149185
0.143121
0.132609
0.131279
0.137936
0.163076
0.164098
0.176558
0.137237
0.119724
0.134458
0.137071
0.122419
0.166563
0.154522
0.552369
0.250701
0.148882
0.143816
0.132456
0.138995
0.170777
0.178451
0.192212
0.150433
0.1377
0.117444
0.135028
0.139375
0.147604
0.144068
0.676772
0.177315
0.163067
0.157181
0.214507
0.552359
0.151029
0.143465
0.143799
0.207831
0.184805
0.236317
0.227419
0.224585
0.155884
0.155595
0.14399
0.134869
0.144296
0.140623
0.14355
0.149293
0.152087
0.182485
0.249396
0.590845
0.800479
0.810441
0.188968
0.184677
0.169516
0.163121
0.157874
0.189036
0.422794
0.151273
0.144027
0.237085
0.220717
0.209839
0.242332
0.248356
0.245916
0.251896
0.165716
0.161252
0.155504
0.141137
0.154477
0.207963
0.147207
0.151786
0.154743
0.161339
0.819521
0.302892
0.401558
0.566594
0.895555
0.847038
0.251432
0.206332
0.194386
0.17885
0.172038
0.165672
0.157374
0.429649
0.162602
0.15482
0.241512
0.227104
0.260361
0.251883
0.27434
0.256568
0.172096
0.169837
0.169587
0.155081
0.160975
0.211048
0.152184
0.157548
0.162779
0.166804
0.798297
0.47439
0.91616
0.599111
0.925825
0.284653
0.214462
0.20367
0.186773
0.17915
0.172491
0.166187
0.159653
0.415382
0.14945
0.235695
0.221824
0.269644
0.248224
0.279166
0.283649
0.300085
0.182715
0.178209
0.176977
0.16394
0.169644
0.2267
0.159222
0.165603
0.16892
0.176769
0.556359
0.972243
0.579927
1.00927
0.984662
0.313311
0.197387
0.207055
0.188715
0.172229
0.180788
0.17054
0.47386
0.155963
0.219138
0.230588
0.263616
0.24429
0.278158
0.297222
0.296313
0.338056
0.190362
0.188164
0.189476
0.177749
0.171336
0.228515
0.165789
0.171663
0.177974
0.18381
0.602803
1.05374
1.07894
0.666265
1.09667
0.310763
0.198463
0.210152
0.184847
0.178416
0.496601
0.168717
0.221466
0.234392
0.257909
0.247681
0.273648
0.29623
0.311801
0.335234
0.375038
0.202441
0.196969
0.196603
0.189103
0.178955
0.241375
0.179825
0.17246
0.211962
0.185977
0.194914
0.591081
1.15136
0.698355
1.19324
1.19337
0.329143
0.200871
0.208844
0.190326
0.54731
0.171992
0.224059
0.234168
0.26209
0.250339
0.277486
0.289834
0.315064
0.338442
0.362229
0.422392
0.213116
0.205305
0.202633
0.222026
0.181136
0.245357
0.184168
0.225184
0.203815
0.196864
1.24161
0.61556
1.29077
0.766873
1.32878
0.338589
3.64985
0.202894
0.215118
0.577126
0.178899
0.223586
0.237632
0.26306
0.249422
0.279759
0.293522
0.308307
0.33749
0.364643
0.402126
0.412958
0.479059
0.210092
0.219835
0.203514
0.234337
0.236735
0.186849
0.255218
0.199698
0.216297
0.207086
0.639407
1.36612
1.41538
0.770292
1.44494
0.353703
4.40738
3.87582
4.60697
3.18424
3.9592
2.78974
0.751805
0.187755
0.231893
0.23845
0.254165
0.252566
0.267561
0.280591
0.294009
0.311392
0.42399
0.327688
0.361238
0.397176
0.478459
0.541667
0.510046
0.617858
0.231728
0.225024
0.247546
0.251647
0.227121
0.199408
0.271793
0.207346
0.219421
0.699155
1.52048
1.50331
0.357066
9.80429
7.17486
4.72242
3.39321
4.36372
5.47821
0.724371
0.718617
0.810411
3.02079
2.61985
2.79068
2.54537
2.91514
1.38714
0.219225
0.305988
0.287328
0.273939
0.464694
0.284907
0.295613
0.311873
0.330418
0.42252
0.349641
0.387942
0.533201
0.479672
0.58986
0.576224
0.721148
0.806613
0.248663
0.251309
0.265023
0.264859
0.241316
0.231316
0.209936
0.269357
0.223009
0.789621
1.81168
10.1273
7.33936
3.60962
4.35717
5.52844
0.787731
0.840137
0.920336
0.843767
0.898342
2.13266
2.32175
2.24651
2.52334
2.99091
2.06883
1.18202
0.318472
0.328541
0.292149
0.454859
0.47188
0.310683
0.308342
0.329141
0.351503
0.414618
0.373177
0.542322
0.509188
0.595643
0.647277
0.729696
0.766512
0.276543
0.265319
0.232793
0.293498
0.281783
0.254491
0.245423
0.319437
0.236784
0.224544
0.33064
0.868003
9.84249
11.2001
7.49129
3.58597
4.45296
5.70717
0.830641
1.00247
1.18956
0.939052
1.02763
1.82948
1.47207
0.933202
1.00112
1.9927
2.18588
2.5446
2.95255
2.48325
2.13111
0.60522
0.345413
0.325284
0.44396
0.473825
0.325193
0.328341
0.349737
0.374207
0.400022
0.553597
0.513289
0.605108
0.660802
0.698565
0.758244
0.302253
0.319378
0.295075
0.248683
0.249057
0.270971
0.286961
0.259836
0.334763
0.307203
1.72603
2.49499
0.241295
0.235144
10.2517
7.29755
7.04484
11.4057
7.76151
3.63366
4.54875
5.91913
0.912761
0.805852
1.07055
1.20277
1.13502
1.4044
1.66362
1.0369
1.12286
1.90799
2.14635
2.52699
3.06518
3.27104
3.08749
3.87757
0.64155
0.409802
0.34828
0.429296
0.462463
0.350677
0.346672
0.370388
0.400717
0.498965
0.540404
0.586574
0.63925
0.693382
0.739233
0.773232
0.33738
0.335561
0.262452
0.261986
0.276741
0.293221
0.312759
0.358075
0.327079
0.264369
0.361023
0.458483
10.664
7.53975
6.47381
4.31497
4.3917
11.5843
7.60072
3.7155
4.14697
4.95762
1.00671
0.876719
0.838714
1.61549
1.25986
1.35025
1.15896
1.24828
1.86929
2.11717
2.63669
3.13222
0.944746
3.87795
3.92226
4.47741
0.854058
0.455407
0.386791
0.429775
0.462374
0.371143
0.373323
0.398424
0.498412
0.539005
0.584337
0.635693
0.680297
0.713927
0.770653
0.78289
0.376176
0.37787
0.283053
0.282784
0.298944
0.315767
0.331772
0.385257
0.349436
0.332945
0.283583
0.302713
10.4477
3.29171
6.16611
5.39711
4.35535
11.7404
7.70914
3.51002
4.33029
5.22201
6.51452
1.11569
0.862337
0.976294
0.867314
1.29764
1.56127
1.41971
1.87386
2.27455
2.71537
2.99761
0.994408
4.6366
4.81298
5.59053
0.963859
0.532633
0.421883
0.460089
0.42606
0.396681
0.401697
0.49467
0.535264
0.627015
0.578132
0.667738
0.709719
0.711793
0.759965
0.823952
0.421507
0.407905
0.417834
0.304296
0.303464
0.33032
0.34941
0.372163
0.364652
0.306072
0.349507
10.9353
7.30173
2.47821
2.7169
4.9653
4.35675
3.59392
8.10778
11.6782
3.65402
4.28726
5.04612
6.20935
1.23862
0.892837
1.06792
0.919246
0.979825
1.46353
1.57339
1.37164
1.94505
2.32959
2.63831
3.13335
1.47401
5.55487
5.89895
6.51491
1.20708
0.610479
0.444691
0.463032
0.429008
0.42959
0.502863
0.534682
0.617392
0.580799
0.681159
0.711792
0.749129
0.798986
0.857108
0.474619
0.456775
0.45167
0.400132
0.330297
0.332456
0.351184
0.365319
0.381387
0.330777
0.412421
11.7556
8.623
6.4432
5.50839
1.92308
2.16862
2.59469
4.1624
3.56008
3.08902
1.56117
8.09184
11.4655
11.6747
3.6375
4.28798
5.73851
5.04662
1.19567
0.943883
1.04419
0.973716
1.51542
1.70893
1.33248
3.13816
2.00076
2.24162
2.7031
1.59804
6.75814
7.27379
8.13416
0.473428
1.44724
0.631122
0.466626
0.46659
0.553997
0.531776
0.63635
0.64375
0.598481
0.691274
0.752918
0.811264
0.537123
0.500035
0.485586
0.428653
0.414886
0.351332
0.347284
0.371955
0.394283
0.355385
0.440643
0.617021
0.702066
8.36457
6.67936
5.12869
4.42389
1.77569
2.19127
2.62916
3.42764
2.94203
1.4646
1.24731
1.07337
0.86072
0.799973
10.8309
7.80641
10.8555
8.13343
3.16462
3.67723
4.21667
5.60405
1.17294
0.996242
1.0563
1.72703
1.52246
1.33607
1.26962
2.69359
2.68788
1.97713
2.33248
1.95474
9.22567
8.37649
9.37238
0.665803
1.55718
0.501348
0.557593
0.639125
0.583225
0.686671
0.7328
0.786203
0.541475
0.520549
0.46288
0.440208
0.418149
0.380345
0.375292
0.39912
0.51348
0.384195
0.741298
0.619381
0.680215
6.409
5.41963
4.19619
3.58392
1.79217
2.24733
2.47653
2.82512
1.57428
1.23732
1.30377
0.760503
1.04561
0.825783
0.900504
8.01285
6.67113
6.2525
5.15083
3.00251
3.52707
4.60312
2.63039
1.13366
1.0573
1.64541
1.40684
1.532
1.36024
1.22197
2.36244
2.40651
2.00183
1.80413
11.3061
10.5281
11.3652
1.07699
1.74695
0.552613
0.325125
0.63561
0.700506
0.759614
0.561334
0.498989
0.479266
0.452833
0.426529
0.403017
0.396361
0.462754
0.40186
0.691125
0.616146
5.04642
5.20355
4.42532
3.43665
2.91191
1.92208
2.12035
2.36741
1.64355
1.45871
1.28052
0.768993
0.819099
1.128
0.891278
0.984568
5.79421
5.17641
5.13596
4.29851
2.32756
3.11933
3.40962
2.69069
4.32648
1.1215
1.72947
1.56774
1.47289
1.30098
1.19121
1.80687
1.99252
2.03128
1.84991
15.1857
13.6383
15.6494
3.07313
0.617817
0.901287
0.681403
0.743255
0.54147
0.513413
0.483969
0.459919
0.433653
0.429523
0.471768
0.437828
0.676729
0.587682
4.25038
4.32604
3.54113
2.79965
2.41798
1.82953
2.01411
1.58802
1.39072
1.23524
0.73914
0.801274
1.10345
0.887542
0.980629
4.27265
4.13339
3.34532
1.89333
2.0972
2.38375
2.6044
3.55148
1.50034
1.37258
1.25155
1.64509
1.58003
1.79791
2.64482
20.8834
27.3971
9.45273
0.677888
1.11698
0.739192
0.560257
0.525762
0.4952
0.462848
0.458289
0.506358
0.641492
0.605448
3.51507
3.45936
2.81686
2.32353
2.05179
1.73467
1.51063
1.32712
1.17599
0.701314
0.770843
1.04884
0.849662
0.941949
3.40615
3.40176
2.78919
1.95536
2.1278
2.30828
1.81823
2.82758
1.41158
1.30882
1.50971
1.54038
1.67697
4.70944
46.1615
45.4992
21.339
0.754526
2.34287
0.566036
0.536535
0.49404
0.502083
0.618599
0.66322
0.617523
2.83005
2.81309
2.33797
1.98757
1.76636
1.53933
1.35298
1.20186
0.722681
0.795328
1.07356
0.873576
0.967578
2.78428
2.77103
2.32925
1.85494
1.98324
1.68678
2.347
1.35724
1.43021
1.45601
1.52722
1314.63
10.0967
77.9301
81.0471
51.3561
1482.2
0.57955
0.541244
0.556469
0.553664
0.848875
0.669739
0.63024
2.30199
2.32658
1.99986
1.72339
1.50583
1.33252
1.18733
0.734069
0.800822
1.07025
0.880699
0.966507
2.21336
2.23581
1.98269
1.6831
1.53066
1.95586
2.00959
1105.73
1207.7
23.407
139.871
140.025
1582.12
1368.86
1951.6
0.594757
0.541556
0.613939
0.610645
1.4186
0.685712
0.625129
2.01128
2.00478
1.7267
1.50891
1.33495
1.1959
0.749651
0.819722
1.08029
0.982876
0.896165
1.97308
1.75619
1.5274
1.74006
1.81119
1.77997
765.339
976.134
1148.02
53.4551
1532.93
1304.34
1833.61
1961.84
0.621455
0.617012
0.683104
3.05455
0.69939
0.634824
1.67086
1.68281
1.48697
1.32162
1.19071
0.750479
0.83217
1.08565
0.991898
0.909468
1.76057
1.57274
1.62301
1.65276
1.63803
1.61587
713.766
612.037
896.981
1138.74
1897.41
1679.32
1524.26
1292.59
1911.29
1981.12
0.660361
0.681192
0.756319
0.681864
0.700275
0.740031
1.54804
1.37306
1.2523
1.13419
0.810669
0.822034
1.06372
0.964322
0.918441
1.57055
1.5248
1.52905
1.50798
1.48163
558.009
507.677
864.11
1195.19
2190.95
1964.95
1473.64
1725.49
1572.57
1349.37
2039.16
2022.63
0.695949
0.723839
0.739426
0.761955
0.822637
1.45043
1.33284
1.23495
1.13748
0.853104
0.878214
1.06159
0.990504
0.932848
1.42033
1.38875
1.34338
2455.81
445.506
441.1
884.224
1369.73
2212.72
2138.16
1260.22
1496.13
1817.27
1713.79
1528.12
2269.11
2098.69
0.726054
0.752573
0.787703
0.8201
1.3213
1.27177
1.20442
1.1331
0.866004
0.909156
1.06607
1.00829
0.953812
2922.54
2425.66
366.569
407.1
990.21
1881.88
2276.94
2426.39
1155.8
1260.45
1550.09
1968.65
2040.74
2051.6
2678.28
2237.02
3281.78
3048
2400.4
314.263
408.433
1333.73
4454.75
2421.08
2930.33
989.074
1163.35
1290.37
1654.68
2223.66
2896.16
4638.37
3463.41
2480.3
3394.96
3675.9
3101.99
2415.94
292.631
487.536
3078.89
2703.25
3777.26
876.884
999.889
1193.19
1365.64
1844.89
2686.69
6776.57
5315.52
3453.42
3907.35
4096.27
3120.54
2526.88
321.705
958.952
3284.43
5364.61
596.879
869.571
1048.54
1261.89
1514.69
2208.13
3718.08
12569
2796.05
3916.28
4585.13
4517.47
3182.7
2828.77
573.165
4693.96
129.289
537.028
868.493
1148.89
1397.45
1807.73
3042.66
7543.92
3063.55
3311.33
4523.7
5459.6
4926.44
3412.83
3637.14
10114.7
83.7194
121.442
493.359
873.621
1332.5
1665.97
2486.76
6174.54
2418.55
3583.65
4063.56
5417.66
6598.63
5399.45
4131.96
6823.24
91.1747
88.1434
117.576
463.007
887.916
1679.32
2289.59
4978.13
1335.71
2821.41
4207.85
5300.13
6782.74
8039.44
6297.03
7096.84
97.2215
99.1883
95.7622
118.784
447.056
922.943
2459.79
4556.48
1075.12
1555.34
3309.59
4971.33
7619.79
8912.77
9722.73
9536.87
97.6944
105.687
110.741
107.942
128.806
449.795
1032.76
5230.62
931.124
1168.13
1777.4
3984.46
5944.05
13016
12203.6
11296.2
92.3581
106.142
117.891
127.702
127.759
160.319
520.485
1298.82
947.376
1045.57
1275.17
2046.89
4979.42
7506.71
28331.1
10827
85.3091
100.281
118.329
135.869
154.168
163.413
249.579
1060.32
1075.12
1058.27
1172.4
1422.45
2425.07
6671.55
10985.1
78218.3
128.443
89.7417
111.807
136.297
164.025
200.824
246.35
662.641
1322.69
1177.59
1182.99
1335.1
1654.9
3036.56
12538.6
14123.8
577.311
121.147
97.4215
128.798
164.457
213.958
307.819
600.105
2509.49
1513
1295.39
1344.73
1576.06
2076.35
4243.76
65629.3
901.583
523.257
117.716
109.705
155.396
214.421
328.77
763.869
2907.54
2989.66
1681.37
1456.1
1585.62
1989.65
3005.94
8009.71
1000.62
888.261
481.787
119.339
129.7
202.386
329.372
817.126
2632.31
3323.94
3700.76
1848.6
1707
2000.97
2870.44
6046.03
1174.16
1015.55
885.473
451.984
129.953
165.668
310.214
817.222
3162.21
3013.61
3837.87
4948.16
2038.57
2152.05
2889.43
5718.18
1268.75
1185.4
1069.41
890.637
436.155
162.007
249.038
767.061
3264.43
3429.06
3458.3
4525.12
7432.53
2348.93
3115.64
5794.45
1486.07
1271.42
1220.36
1175.96
905.822
438.914
251.59
601.833
3229.13
3710.33
3700.49
4000.94
5542.02
12824.8
3462.34
6261.85
1705.74
1513.62
1305.25
1295.55
1367.75
943.843
509.506
662.103
2903.11
3604.19
4291.14
4070.25
4734.51
7220.36
25693.6
8596.72
2081.51
1891.02
1763.52
1573.67
1385.67
1439.83
1727.47
1057.43
1047.99
2436.61
3024.43
4007.75
5023.83
4578.41
5880.13
10097.1
65674.7
1696.82
2082.93
1987.23
1868.4
1684.62
1541.84
1722.36
2538.7
1341.14
2175.41
2406.44
3076.56
4416.76
6031.42
5406.52
8046.66
13147.9
1848.79
1532.18
1655.58
2103.72
2130.31
2032.95
1882.44
1847.6
2376.47
5421.13
2184.97
2379.98
3094.55
4823.95
7409.99
7322.61
14247.5
1912.53
767.186
1437.47
1435.08
1656.04
2149.72
2379.94
2303.06
2257.75
2553.01
4759.78
851.605
1214.08
2240.43
2393.09
3160.78
5311.92
9194.72
9404.08
2070.57
600.914
1323.2
1380.73
1716.62
2234.03
2818.16
2787.22
3117.02
5150.13
678.445
1084.25
2377.59
2500.33
3395.02
6243.22
11438.8
2343.88
480.51
1260.84
1379.02
1878.37
2385.23
3654.2
3856.85
6353.9
563.551
1003.99
2651.77
2796.91
4114.58
9527.4
2826.49
395.871
1254.41
1449.46
2242.85
2651.32
5631.73
7834.77
489.621
972.545
3217.27
3592.23
7031.88
3658.16
339.226
1321.29
1653.48
3194.78
13421.1
450.585
999.485
4587.16
6728.97
5225.65
314.805
1521.29
2238.08
7538.02
448.594
1121.84
9843.65
343.417
2101.31
5136.44
527.292
1509.24
610.711
4999.52
1008.97
3464.4
0.906036
0.866223
0.890947
0.890843
0.92011
0.916266
0.929834
0.929224
0.947147
0.833831
0.854745
0.862954
0.886705
0.893386
0.916614
0.926053
1.00138
1.02546
1.04918
1.08566
1.11301
0.946266
0.958977
0.945299
0.946319
0.954565
0.949086
0.973685
0.965982
0.992034
1.15618
1.17649
0.806156
0.828102
0.839611
0.861516
0.873029
0.892844
0.909459
0.929268
0.945681
0.964011
0.983339
1.00301
1.03236
1.05983
1.10876
1.13644
1.22573
1.24044
0.976863
0.991822
1.01138
1.02748
1.05185
1.07374
1.11441
0.972262
0.976754
0.974622
0.973637
0.992967
0.981234
1.02188
1.00875
1.04181
1.11406
1.14388
1.3108
1.33647
1.22353
1.2177
1.29951
0.786534
0.805914
0.822442
0.841356
0.858982
0.877618
0.897749
0.91532
0.943159
0.963773
0.988929
1.00919
1.07466
1.10055
1.14764
1.17198
1.24365
1.26833
1.34948
1.38613
1.47965
1.49362
1.62692
0.999361
1.00867
1.02781
1.04396
1.06909
0.997952
0.999804
1.00857
1.00126
1.03385
1.01939
1.09376
1.06965
1.05299
1.07847
1.13793
1.1419
1.22509
1.25098
1.57183
1.3661
1.48711
1.31695
1.36271
0.775567
0.793409
0.813513
0.832542
0.853523
0.871559
0.894053
0.914413
0.935714
0.960821
0.990931
1.03211
1.16536
1.10281
1.21303
1.26788
1.34315
1.36475
1.45033
1.67555
1.72242
1.74114
2.0106
2.04281
1.94603
2.0902
2.0928
2.81276
1.02165
1.03131
1.04778
1.06374
1.14623
1.118
1.02625
1.02336
1.04387
1.03342
1.09658
1.07437
1.05996
1.19813
1.16828
1.08896
1.12836
1.1595
3.64567
3.07067
5.67889
1.23222
1.2354
1.32404
1.35544
1.61003
1.6407
2.30675
1.93617
1.55239
1.61892
0.781382
0.79538
0.820571
0.836523
0.86304
0.879683
0.909028
0.928999
0.991468
0.968539
1.04749
1.07499
1.1716
1.18893
1.36821
1.36475
1.54739
1.56011
1.73155
1.76322
1.94585
22.5983
21.1917
12.4934
2.00917
2.23261
2.40791
2.67654
2.952
3.10154
3.09197
11.6189
4.93199
1049.77
1328.31
1243.75
1827.55
1541.2
1656.02
1768.18
1836.91
1.04703
1.04918
1.07232
1.08639
1.14232
1.11815
1.05712
1.05061
1.10025
1.08145
1.07018
1.252
1.21984
1.18996
1.16376
1.10698
1.15426
1.25098
1.18759
1.24213
895.07
629.126
109.709
57.4594
25.0227
2.45838
4.12769
5.43202
14.8951
1.36658
1.37256
1.38209
1.37301
1.59648
1.62947
1.77254
1.70652
2.28702
961.252
1258.33
1472.94
1399.36
1619.75
1764.62
1798.5
1857.46
1809.31
1760.53
0.872257
0.838128
0.902728
0.891029
0.949022
0.941251
0.999543
0.995424
1.05254
1.05046
1.12023
1.11877
1.23804
1.26945
1.31962
1.33698
1.16652
1.45819
1.27047
1.32001
2.81152
2.80783
3.38625
3.81285
3.7258
58.3967
94.1972
300.547
182.556
56.3619
39.1408
6.34791
8.39885
12.15
11.4511
36.1194
16.7696
14.8256
390.161
930.621
614.57
675.552
956.087
1183.45
1309.93
1303.3
1608.64
1596.83
1606.15
1519.23
1824.17
1883.85
1917.96
1741.69
1891.14
1811.83
1.07565
1.07597
1.097
1.11293
1.14477
1.12134
1.10973
1.09199
1.0817
1.30377
1.26924
1.23593
1.20897
1.18381
1.1606
1.12803
1.17409
1.18093
1.24327
1.24828
1.30989
1.24048
185.276
492.132
331.569
848.288
525.196
92.2631
198.271
70.5876
23.6704
1.37119
17.4385
3.04707
6.2904
4.36669
1.55369
1.48479
1.66698
1.56207
1.70434
1.6925
1.93603
1.79884
3.0622
949.754
1332.33
846.903
1460.99
1650.84
1261.1
1490.15
1772.05
1777.14
1795.22
1616.1
1797.45
5.16984
1.16046
103.706
29.1472
2.42374
1.18738
1.78934
1.13795
1.48417
1.09142
1.32521
1.29341
1.24758
1.40511
1.37136
1.60987
2.29328
1.44686
2.7461
4.13662
4.25845
7.77683
22.2825
8.6461
9.28955
39.2842
42.657
14.8785
13.5985
19.0719
19.9702
26.6832
28.3115
122.098
185.521
344.744
238.106
132.773
83.7396
49.3266
54.2223
99.1106
66.7285
73.0072
608.533
480.5
648.945
963.394
854.36
1267.42
1172.33
1578.59
1415.64
1475.67
1678.91
1847.67
1773.76
1672.74
1856.62
1938.36
1945.52
1.13368
1.10419
1.102
1.12192
1.14425
1.1257
1.11747
1.14619
1.3585
1.32212
1.28275
1.25211
1.22405
1.19715
1.1811
1.15871
1.40807
1.35052
1.40941
1.46357
1.42428
1.45732
1.19859
1.19418
1.20086
1.22606
1.38688
1.29671
1.33399
1.25649
505.816
397.255
234.271
35.5705
172.537
96.0746
1.4645
1.74859
1.68789
44.9343
4.37049
12.5492
7.75299
1.98323
1.89945
2.08246
2.01021
2.40329
2.09987
5.13845
465.89
1040.88
1313.48
901.444
645.889
1472.92
1208.16
1518.25
992.244
1796.48
1840.73
1923.23
1805.38
1665.78
222.279
246.288
58.9985
11.5548
252.71
218.878
30.4848
11.1299
21.3169
6.40679
13.4793
4.23898
9.34216
2.35234
4.41428
10.0685
30.2858
18.3774
37.3193
20.0306
26.566
65.0644
101.772
111.556
56.9185
53.9427
120.64
137.442
62.5577
70.134
95.1543
96.2272
126.473
103.605
402.465
215.7
290.876
269.017
210.897
189.668
238.954
141.103
220.6
715.488
527.282
1197.74
937.123
1045.69
1487.64
1333.56
1675.78
1590.72
1779.76
1721.03
1.43958
1.40581
1.13099
1.14783
1.15066
1.13509
1.13312
1.15844
1.175
1.32593
1.28101
1.2634
1.22853
1.21536
1.18978
1.18098
1.16283
1.3706
1.33306
1.3531
1.37933
1.33166
1.36311
1.19357
1.20242
1.21616
1.26479
1.51992
1.37756
1.40682
1.31068
91.7159
191.374
291.484
1.63424
1.94063
1.90598
2.34483
2.315
23.6772
102.268
7.07344
21.6072
2.5756
2.33221
3.99788
2.98142
8.20165
314.363
604.468
518.061
1137.52
1171.83
1386.8
1802.13
1939.56
1030.54
1658.73
2063.2
2000.71
2022.12
1875.23
223.096
198.72
102.354
249.123
231.571
290.708
234.682
151.641
319.666
395.975
225.182
107.494
175.426
66.7847
124.804
50.8077
65.8099
89.099
64.3417
143.21
111.002
103.021
103.66
113.168
219.904
241.694
259.813
295.881
188.74
181.468
321.606
339.329
206.515
226.594
290.391
283.398
325.109
552.378
456.753
517.321
358.697
458.252
467.92
415.279
503.814
1028.93
827.398
1386.25
1239.64
1595.05
1516.29
1677.01
1611.76
1.48239
1.42109
1.37562
1.34151
1.16679
1.16267
1.16434
1.17396
1.19202
1.29984
1.27313
1.24796
1.22833
1.20847
1.19489
1.18532
1.29692
1.31646
1.27661
1.30357
1.27943
1.30286
1.20868
1.20945
1.2378
1.32958
1.25454
1.21356
1.6807
1.52429
1.54318
1.41726
1.81415
234.34
140.656
2.20821
2.22205
2.53999
2.60341
3.44348
4.10264
2.53611
26.7091
127.271
31.9267
9.79157
6.30652
28.6115
587.897
389.262
1298.69
1036.68
1762.16
1888.44
2168.18
2180.84
2255.12
2141.45
6.54964
33.2113
256.861
280.888
64.4779
236.906
310.737
252.149
417.656
447.12
256.891
338.184
455.191
436.253
454.384
299.514
376.785
278.136
242.548
228.074
388.277
290.898
400.952
332.464
340.482
455.504
502.944
502.837
531.398
448.475
427.717
379.668
594.455
611.955
472.947
491.767
631.944
628.658
821.01
927.465
805.247
768.227
834.112
745.65
807.032
1283.38
1180.92
1453.77
1385.3
1492.98
1430.93
0.890231
1.61316
1.49827
1.4598
1.41379
1.35988
1.32535
1.29072
1.18096
1.18322
1.18247
1.18491
1.21498
1.26199
1.24581
1.22486
1.21286
1.1985
1.23197
1.25327
1.23239
1.25515
1.24468
1.26406
1.21315
1.27101
1.28456
1.42988
1.25574
1.28136
1.92237
1.60435
1.68012
1.45185
2.26516
2.71256
2.8225
461.882
188.042
2.96782
2.37483
9.01185
4.26959
41.7975
34.5359
22.9686
142.868
231.805
81.1048
1261.42
781.6
1932.55
1713.96
2236.84
2287.19
2503.35
2455.36
3.29839
20.381
254.278
394.887
41.0935
148.922
413.962
329.863
325.706
438.779
344.947
274.505
601.992
411.691
540.976
576.295
579.225
583.88
581.513
505.809
496.498
622.371
596.155
604.297
626.38
752.621
708.48
724.033
730.298
747.974
716.088
856.354
645.27
696.869
875.775
836.826
790.241
804.114
931.382
930.921
1010.38
1012.46
1199.26
1053.83
1070.25
1307.37
1251.53
1303.71
1258.8
0.781647
0.83706
0.893318
1.51268
1.46198
1.44294
1.40826
1.39154
1.35813
1.31211
1.25438
1.28782
1.38025
1.40434
1.19918
1.18631
1.17895
1.18039
1.21522
1.19539
1.1911
1.20151
1.21511
1.20599
1.22682
1.2224
1.23845
1.22665
1.26186
1.31317
1.40491
1.45578
1.34336
1.83523
2.31766
1.59796
1.90952
2.59223
3.70646
2.88037
3.90176
7.52941
2.04058
914.478
535.283
37.902
15.001
152.41
88.085
401.857
712.916
301.227
1814.39
1582.12
2285.63
2399.33
2717.28
2723.41
2.41921
12.8128
215.292
451.596
24.6611
97.8963
464.626
483.329
258.638
289.785
473.278
335.323
544.264
478.403
267.326
344.061
668.449
503.136
566.535
538.405
624.402
679.77
678.089
631.878
661.37
720.599
705.03
707.954
857.138
807.001
771.04
755.883
704.866
847.166
869.523
953.182
892.906
901.671
974.562
988.344
956.689
969.371
999.67
1016.53
1189.26
1142.08
1053.81
1180.49
1155.77
0.769967
0.791155
0.822708
0.890105
0.933684
1.44879
1.36857
1.35775
1.33361
1.33293
1.23058
1.2768
1.25673
1.30488
1.33148
1.31987
1.30181
1.32665
1.28939
1.28725
1.24438
1.24589
1.23083
1.19017
1.18801
1.18895
1.19277
1.22311
1.18838
1.19738
1.20447
1.2111
1.20839
1.22414
1.2285
1.26067
1.35615
1.29643
1.4258
1.58178
1.53371
1.68719
2.20568
2.71982
1.90706
2.30392
3.28709
4.93313
15.2704
10.9084
9.39593
21.5902
76.0567
66.1985
1711.37
1161.63
336.275
312.287
801.927
1249.6
766.188
2263.68
2444.19
2798.27
2966.63
1.95746
7.67361
164.039
428.399
14.3258
57.5862
439.856
556.656
313.492
255.49
544.124
424.481
359.279
293.963
242.565
246.839
564.137
543.045
306.537
428.57
351.351
433.526
542.424
627.404
607.831
596.736
558.819
567.574
511.541
708.489
705.145
591.546
515.937
543.293
530.399
719.305
766.893
974.375
1007.63
1004.37
985.603
991.041
1011.63
1029.77
987.153
994.47
1.31846
0.77896
0.786078
0.806113
0.833598
0.868101
0.933828
0.978734
0.801612
0.799794
0.834669
0.826153
0.874276
0.857928
1.20022
1.21133
1.15695
1.16987
1.10948
1.12638
1.05916
1.08149
0.918364
0.896809
0.964464
0.938608
1.01109
1.03371
0.984244
1.29945
1.28969
1.27294
1.28009
1.24858
1.23759
1.26398
1.25785
1.25578
1.24176
1.26506
1.21756
1.22071
1.17622
1.18212
1.22968
1.1929
1.21003
1.19141
1.20775
1.21014
1.20634
1.213
1.21316
1.22397
1.234
1.2327
1.23219
1.22917
1.32652
1.25593
1.48523
1.37479
1.57186
1.83147
1.7297
2.04251
2.683
3.92211
2.41951
3.06163
4.50535
13.6407
162.915
101.399
194.353
43.1766
178.366
459.344
571.09
2289.56
1852.63
1141.16
1866.9
1215.88
2889.64
2946.26
1.545
4.90808
413.412
102.386
196.344
8.69882
34.8281
563.457
596.235
367.427
280.781
588.921
457.238
638.715
238.568
235.14
227.398
422.468
366.642
215.42
255.266
283.485
236.713
375.735
438.194
399.174
355.202
375.493
329.618
388.144
315.726
400.782
254.062
337.346
237.633
321.51
552.501
990.653
950.14
683.237
938.721
895.187
1.23755
0.974041
1.01887
0.812938
0.821299
0.846404
0.879438
0.918196
0.83089
0.833126
0.857997
0.856264
0.891336
0.884932
1.13584
1.14851
1.09661
1.11239
1.05468
1.07222
1.01244
1.03311
0.931229
0.91836
0.970743
0.992879
0.954542
1.24802
1.23878
1.22897
1.24424
1.23658
1.20137
1.20682
1.19661
1.21977
1.16453
1.17085
1.12433
1.13402
1.23017
1.2316
1.23101
1.24251
1.23513
1.24222
1.24437
1.23695
1.24811
1.26803
1.2505
1.25268
1.2484
1.37823
1.30161
1.31059
1.63769
1.45829
1.74475
2.20373
2.08118
2.5927
3.54952
7.71578
3.1675
4.97157
9.86305
74.407
584.856
738.718
517.02
757.98
200.984
637.769
1122.87
1437.03
1944.02
3091.97
2335.29
1.38935
2.19701
4.32424
234.475
483.908
58.1985
143.009
14.7403
543.149
662.117
344.329
251.181
633.89
390.95
665.144
623.147
511.568
507.986
197.48
214.834
283.729
247.458
179.39
191.875
201.325
179.887
237.747
264.182
251.511
223.482
214.565
199.241
170.69
160.204
142.671
124.388
166.113
118.672
708.793
194.853
506.944
2929.55
1.02211
1.09835
0.926549
0.985739
0.848572
0.863877
0.894272
0.863174
0.866586
0.884759
0.885391
0.910669
0.909551
1.08792
1.10111
1.05083
1.06884
1.01252
1.03248
0.977013
0.999743
0.945351
0.967341
0.937103
1.20963
1.20818
1.20324
1.19712
1.15771
1.17084
1.16293
1.19195
1.1228
1.13472
1.08864
1.10001
1.23245
1.21766
1.25807
1.24787
1.32389
1.29695
1.34134
1.32946
1.2801
1.29552
1.34661
1.30457
1.27879
1.37903
1.29784
1.29819
1.52607
1.51476
1.83719
1.81841
2.61513
2.47384
3.95559
2.97934
5.64408
18.1684
4.41509
8.10072
52.41
254.253
504.128
1306.7
1435.61
1174.07
1236.16
1628.99
2026.95
2283.83
29.3425
1.18118
1.22555
2.01225
2.71499
8.90389
376.908
91.618
184.789
625.226
436.766
230.086
299.214
634.204
654.232
319.835
410.416
664.039
607.518
527.007
419.933
171.516
194.327
187.619
178.241
153.366
157.355
152.091
152.954
156.307
166.768
118.746
122.037
95.7557
96.1714
85.7832
82.9725
112.641
84.266
1.0009
1.06105
0.890996
0.912847
0.956131
0.897064
0.913252
0.91348
0.917115
0.93532
0.934255
1.05517
1.07047
1.01955
1.04268
0.990109
1.01112
0.961229
0.983133
0.957363
1.20663
1.18318
1.18141
1.18427
1.12978
1.14634
1.17927
1.14623
1.09631
1.11461
1.06783
1.08324
1.2648
1.24072
1.24019
1.3052
1.27959
1.41899
1.40565
1.39415
1.42634
1.55262
1.50044
1.50274
1.46304
1.43878
1.37236
1.33746
1.51323
1.45101
1.56256
2.03478
1.79371
3.35969
3.4825
2.43732
3.27719
5.40572
5.82066
23.8444
73.2176
19.5287
202.017
414.482
741.122
1401.38
1943.06
2010.9
2375.61
8029.26
136.869
1.09978
17.5454
45.8282
1.215
1.30829
1.3824
2.23599
3.11493
7.98777
372.871
258.415
642.206
584.499
200.729
254.091
699.537
679.924
276.6
367.951
641.849
559.947
427.462
146.724
170.52
125.898
129.961
129.494
119.651
103.22
106.031
86.0009
89.7213
80.5146
81.7637
79.4805
82.2302
1.05212
0.934983
0.980069
1.01441
1.02523
0.932273
0.953122
0.943855
0.951853
0.957913
0.959452
1.03392
1.05669
1.00776
1.03021
0.981638
1.00507
0.980579
1.06155
1.17895
1.1779
1.18509
1.16166
1.13988
1.11595
1.18849
1.11465
1.09516
1.09132
1.25949
1.22224
1.28786
1.32977
1.3337
1.41527
1.39695
1.55817
1.59813
1.65569
1.63095
1.85379
1.8432
1.78105
1.59459
1.5548
1.75534
1.71574
1.89088
1.87988
2.66077
2.54642
6.37332
6.56375
6.08855
4.6029
35.6157
26.2741
262.597
163.621
592.099
757.573
1115.41
1967.1
272.105
80.8946
134.653
1.2548
1.17076
12.4452
38.5874
1.33777
1.62078
2.19179
2.65447
7.93713
551.209
429.588
715.19
694.761
176.598
232.056
728.929
653.24
532.383
417.848
274.577
125.221
145.49
97.8973
107.159
104.576
86.4612
90.1913
84.3611
84.9517
85.9961
87.6826
1.11628
1.18078
0.983585
0.997927
1.06967
1.13895
0.976468
0.990657
0.977259
0.990045
0.989283
0.995752
1.05683
1.03962
1.01758
1.03431
1.01199
1.25361
1.09514
1.0789
1.07859
1.16915
1.17906
1.145
1.23426
1.18701
1.15817
1.12806
1.34377
1.33099
1.42556
1.39375
1.5276
1.50587
1.72271
1.67172
1.92193
2.02214
2.53157
2.34171
2.21251
1.99798
1.91852
2.09431
2.08787
2.41868
2.49105
2.46134
5.29681
4.19414
38.7537
13.0036
17.7116
10.282
284.406
155.541
747.832
518.304
1059.27
941.53
417.487
191.949
282.773
63.0353
124.031
1.4292
1.27929
11.9055
32.5076
2.60681
1.52589
5.38305
676.846
581.268
757.611
774.643
237.905
173.906
144.462
736.562
544.109
440.031
309.717
254.374
102.056
116.774
87.1442
91.0233
85.7303
85.571
90.9554
89.4907
1.21257
1.32485
1.02592
1.08841
1.13823
1.25261
1.02491
1.05615
1.03571
1.01043
1.04918
1.04786
1.08205
1.05598
1.07432
1.33055
1.28657
1.14466
1.12966
1.14667
1.13445
1.19886
1.26804
1.18075
1.20511
1.17393
1.52274
1.51536
1.44936
1.66775
1.62393
1.86906
1.99106
1.9449
2.34781
2.2881
4.17281
3.21914
3.3209
3.00322
2.8198
2.70745
3.82374
3.85829
3.74722
3.38708
6.43719
23.4608
16.2287
200.616
90.181
94.6434
585.705
408.957
963.522
783.428
342.129
538.396
645.304
163.767
314.213
48.794
114.622
1.45075
1.83551
7.57268
31.134
2.03392
4.60434
794.937
768.129
795.322
775.61
851.101
149.873
174.92
115.952
660.528
503.206
333.836
280.17
171.001
87.3734
97.3315
85.337
83.4512
91.4513
88.5996
1.36276
1.56721
1.102
1.17279
1.25147
1.43253
1.11127
1.08665
1.14805
1.14386
1.14106
1.13664
1.12926
1.42675
1.32352
1.19923
1.2104
1.18037
1.23733
1.31081
1.25835
1.31327
1.25243
1.85185
1.76118
1.71857
1.57852
2.28977
2.59711
2.39987
2.61204
2.96357
2.79256
3.89104
3.32844
4.9809
5.47049
5.37661
3.6315
8.2015
8.53001
6.59993
75.34
38.0175
201.778
183.414
508.14
399.625
799.257
707.685
365.496
547.689
677.019
165.4
323.528
45.045
113.813
2.52656
1.82044
7.94166
5.32388
24.0016
672.063
890.104
880.62
890.046
814.786
864.241