/*--------------------------------*- C++ -*----------------------------------*\
  =========                 |
  \\      /  F ield         | OpenFOAM: The Open Source CFD Toolbox
   \\    /   O peration     | Website:  https://openfoam.org
    \\  /    A nd           | Version:  8
     \\/     M anipulation  |
\*---------------------------------------------------------------------------*/
FoamFile
{
    version     2.0;
    format      ascii;
    class       volScalarField;
    location    "5000";
    object      k;
}
// * * * * * * * * * * * * * * * * * * * * * * * * * * * * * * * * * * * * * //

dimensions      [0 2 -2 0 0 0 0];

internalField   nonuniform List<scalar> 
4109
(
0.0294931
0.0310436
0.0297415
0.0310131
0.0317424
0.0314665
0.0319628
0.0301485
0.0330108
0.032545
0.0325709
0.0333187
0.0298492
0.031691
0.032409
0.0337109
0.0334961
0.03351
0.0338681
0.0325536
0.0298998
0.0313755
0.0314093
0.0345923
0.0346237
0.0350342
0.0295887
0.031626
0.0298765
0.0348557
0.0335083
0.0328084
0.0313738
0.031291
0.0322224
0.0351654
0.0350532
0.0361742
0.0318924
0.0298473
0.0315746
0.0317704
0.0302764
0.0355139
0.0341217
0.0954779
0.047941
0.0334854
0.0329018
0.0312444
0.0322424
0.0358538
0.0366372
0.0379046
0.0336113
0.0317953
0.0293639
0.0318972
0.0323664
0.0331462
0.0328782
0.121498
0.0367272
0.035103
0.0344441
0.0416776
0.0870448
0.0337479
0.032768
0.0324855
0.0393814
0.0373379
0.0425474
0.0413715
0.0411864
0.034154
0.0340536
0.0326711
0.031161
0.0328947
0.0325822
0.0329289
0.0334803
0.0336139
0.0384357
0.0452503
0.100142
0.131041
0.132415
0.0379105
0.0375049
0.0358032
0.0351128
0.0345493
0.0384901
0.066524
0.0337303
0.0325641
0.0427003
0.0410166
0.0398859
0.0429949
0.043713
0.0432582
0.0434024
0.0352869
0.034766
0.0339332
0.0321075
0.0341319
0.0388444
0.0333685
0.0338816
0.0341181
0.0346741
0.138203
0.0527474
0.06645
0.0893383
0.140019
0.137571
0.043288
0.0397092
0.0385823
0.036838
0.0361073
0.0354207
0.0344097
0.0669173
0.0344506
0.033811
0.043123
0.0417124
0.0448116
0.0440366
0.0455689
0.0443332
0.035968
0.035653
0.035573
0.0337215
0.034815
0.0399913
0.0339472
0.0345554
0.0350242
0.0352689
0.124864
0.0734914
0.140771
0.0934732
0.143829
0.0504037
0.0405643
0.0394826
0.0376552
0.0368704
0.0361798
0.0354499
0.0343818
0.0614516
0.0331606
0.0426388
0.0412535
0.0456743
0.0437598
0.046447
0.0468461
0.0476455
0.0371339
0.0366136
0.0363304
0.0345556
0.0358002
0.041213
0.0347743
0.0354559
0.0356977
0.0363703
0.0857464
0.156856
0.0884556
0.147535
0.147756
0.051167
0.038783
0.0397309
0.0378945
0.0361476
0.0370804
0.0356176
0.0672975
0.0340349
0.0409557
0.0420216
0.0451887
0.0433404
0.0464316
0.0480914
0.0477229
0.0507254
0.0379034
0.0376179
0.0376497
0.0361748
0.0360477
0.0414337
0.035504
0.0361264
0.0367111
0.0370907
0.0883079
0.158459
0.154121
0.0931412
0.157214
0.0507742
0.0388934
0.0400826
0.0375247
0.0364924
0.0688115
0.0349181
0.0411787
0.0424252
0.0445454
0.0436488
0.0459791
0.0480246
0.0491898
0.051137
0.053491
0.03918
0.0385743
0.0383979
0.0372316
0.0369126
0.0424624
0.0370112
0.0362537
0.0400884
0.0375824
0.0382753
0.0849004
0.166439
0.096785
0.161537
0.163424
0.0516277
0.0392032
0.0399782
0.0378968
0.0722159
0.035353
0.0415114
0.0424203
0.0449574
0.0439933
0.0463103
0.0473383
0.0495491
0.0514384
0.0529531
0.0570317
0.0401947
0.0393394
0.0387302
0.0410629
0.0372226
0.0428836
0.0374982
0.0414014
0.0391362
0.0387238
0.173597
0.0846254
0.168894
0.100556
0.173551
0.0522207
0.178178
0.0390019
0.0403519
0.073878
0.0361575
0.0414868
0.0426747
0.0450578
0.0440028
0.0466196
0.0476818
0.0489256
0.0514042
0.0533722
0.0562288
0.0566062
0.0607034
0.0393254
0.0407661
0.0390696
0.0422313
0.042458
0.0379197
0.0437166
0.0391343
0.0404115
0.0397641
0.0849788
0.181515
0.175598
0.0991203
0.179868
0.0529409
0.192185
0.184677
0.201925
0.165711
0.185362
0.156429
0.088327
0.0370704
0.040315
0.0423385
0.0432155
0.0439438
0.0454345
0.046757
0.0477076
0.0491797
0.0578432
0.0504672
0.0532129
0.0559856
0.0613238
0.0648614
0.0632742
0.0693733
0.0416364
0.0411542
0.0434469
0.0438744
0.0414032
0.039233
0.0452233
0.0398999
0.0409902
0.0874973
0.194275
0.181032
0.052869
0.291805
0.259642
0.201859
0.172462
0.195364
0.221414
0.0754762
0.0759825
0.0811417
0.159978
0.149359
0.151417
0.148046
0.159317
0.150555
0.0387209
0.0452335
0.0452827
0.0459877
0.0606697
0.0470052
0.0479489
0.0493294
0.0507211
0.0577031
0.0522391
0.0552907
0.0651245
0.0617056
0.0681427
0.0678821
0.0765104
0.0808355
0.0429086
0.0436708
0.0450706
0.0450186
0.0427835
0.0421231
0.0402972
0.0449214
0.0414816
0.0915208
0.218408
0.302446
0.258241
0.177273
0.194673
0.221846
0.079514
0.0814118
0.0869646
0.0826626
0.085638
0.132774
0.139184
0.139541
0.147218
0.160072
0.240387
0.119257
0.0441239
0.0474635
0.0471607
0.0600608
0.0611583
0.0491738
0.0491162
0.0506093
0.0523905
0.05714
0.0540081
0.0657927
0.0637523
0.0692208
0.0721347
0.0768433
0.0786503
0.0456585
0.0449447
0.0423631
0.0475729
0.0465223
0.0439286
0.0434544
0.0497167
0.0429093
0.041791
0.0498513
0.0973114
0.294377
0.324317
0.260233
0.176716
0.19758
0.225335
0.0820357
0.0895074
0.0979474
0.087682
0.0919248
0.122685
0.10927
0.0871524
0.0904033
0.129305
0.137202
0.147586
0.158635
0.257666
0.211405
0.0650494
0.0491768
0.049675
0.0593154
0.0612047
0.0502859
0.0506703
0.0523627
0.0541236
0.0560351
0.0663927
0.0639626
0.0696927
0.0728347
0.074904
0.0782349
0.0475254
0.0496678
0.0476117
0.0438726
0.043934
0.0454458
0.0467594
0.0447534
0.0509279
0.0485202
0.169927
0.222064
0.0434372
0.0412713
0.304913
0.257193
0.255513
0.326934
0.265677
0.17739
0.199507
0.230036
0.0861815
0.0808368
0.0934813
0.0994576
0.0972087
0.107371
0.118065
0.0920539
0.0961632
0.127289
0.134558
0.147115
0.162411
0.318263
0.273417
0.319569
0.0649529
0.0524503
0.0511498
0.0581017
0.0604347
0.0523506
0.0522429
0.0538896
0.0560982
0.0628431
0.0655458
0.0683769
0.0715453
0.07466
0.0773511
0.0791724
0.05073
0.0507087
0.0453181
0.0450457
0.0462647
0.0476403
0.0493121
0.0529671
0.0500676
0.0451154
0.0510831
0.0557035
0.31422
0.260681
0.243283
0.192409
0.191702
0.331402
0.261553
0.17987
0.190323
0.209855
0.0906919
0.0845432
0.0826235
0.117015
0.102104
0.106039
0.0975871
0.101434
0.125649
0.133304
0.149907
0.164021
0.0870327
0.350403
0.329259
0.352863
0.0777334
0.0551254
0.0538545
0.0581752
0.0604453
0.0540303
0.0539129
0.0560533
0.0628484
0.0654781
0.0682847
0.0713624
0.0739964
0.0759228
0.0790993
0.0798323
0.0532129
0.054194
0.0469656
0.046971
0.0482613
0.0496738
0.0508926
0.0548004
0.0517955
0.0508241
0.0469149
0.0479008
0.311106
0.166955
0.230566
0.222496
0.192826
0.334703
0.262779
0.175032
0.195203
0.215467
0.241861
0.0956993
0.0839854
0.0893884
0.0840318
0.103494
0.114226
0.108682
0.12574
0.138973
0.152621
0.160453
0.0879248
0.386887
0.371455
0.405564
0.0809157
0.0590824
0.0559648
0.0604227
0.0579751
0.0560393
0.056197
0.062665
0.0653808
0.0709956
0.06797
0.0733245
0.0758573
0.0759436
0.0787374
0.0821517
0.056871
0.056096
0.0573878
0.0489199
0.04873
0.0508966
0.0524992
0.0535602
0.0530926
0.0487641
0.0504335
0.316673
0.255876
0.144123
0.150031
0.205882
0.197877
0.174268
0.271596
0.331827
0.178324
0.194489
0.211276
0.236283
0.101053
0.0855576
0.0936483
0.0868778
0.0896802
0.110237
0.114315
0.106576
0.127834
0.140724
0.150769
0.164765
0.114246
0.425774
0.426243
0.43979
0.092727
0.0628351
0.0580691
0.0606818
0.0582862
0.0580179
0.0632399
0.0653627
0.0704024
0.0681896
0.0741608
0.0760721
0.0781835
0.0808138
0.0838559
0.0601239
0.0598697
0.0596107
0.0555849
0.0509801
0.0510868
0.0525645
0.0534746
0.0544421
0.0507345
0.0545753
0.332287
0.280528
0.242757
0.220205
0.125446
0.133328
0.147221
0.189091
0.178081
0.162938
0.112964
0.273096
0.326601
0.331985
0.177865
0.194801
0.225571
0.211583
0.0993951
0.0881183
0.0924775
0.0893789
0.112206
0.119609
0.105151
0.165273
0.130088
0.137725
0.152394
0.113146
0.473141
0.482276
0.505337
0.0599298
0.0994982
0.0645955
0.0611476
0.0607649
0.066695
0.0651655
0.0716397
0.0720622
0.0693426
0.0750061
0.0783799
0.081437
0.0646472
0.0625503
0.0620266
0.0576443
0.0568252
0.0527315
0.0522501
0.0541413
0.0559709
0.0525818
0.0562082
0.0689927
0.0741642
0.276864
0.245261
0.214982
0.196168
0.120339
0.135278
0.150085
0.170769
0.160963
0.108479
0.0999264
0.0926451
0.0825023
0.0790683
0.316712
0.265745
0.316411
0.271536
0.166291
0.179113
0.192034
0.220965
0.0985758
0.0905874
0.0934061
0.120369
0.112729
0.105503
0.102385
0.152049
0.151899
0.129711
0.141208
0.136837
0.56195
0.530006
0.526464
0.0666855
0.10114
0.063177
0.0643488
0.0721648
0.0683714
0.0746814
0.0773103
0.0802702
0.0648863
0.0643759
0.059975
0.0586213
0.0573937
0.0549058
0.0544396
0.0561992
0.0607777
0.0546782
0.0761813
0.0696918
0.0729739
0.240222
0.219898
0.193322
0.175527
0.120687
0.137632
0.147274
0.15429
0.11371
0.0996839
0.102293
0.0776867
0.0909418
0.0802071
0.0844412
0.270056
0.251219
0.237679
0.216712
0.160549
0.174382
0.199627
0.149446
0.0968161
0.0934655
0.117314
0.108098
0.113227
0.106384
0.100771
0.142453
0.14388
0.130359
0.109736
0.615733
0.595895
0.585989
0.0834965
0.105997
0.0673843
0.0611315
0.0717541
0.0755891
0.0788886
0.0673075
0.0623843
0.0612879
0.0601526
0.0581436
0.0566673
0.0559436
0.0586214
0.0562868
0.0741112
0.0703321
0.211557
0.215162
0.197772
0.17387
0.157331
0.127472
0.135488
0.140605
0.116536
0.110487
0.102395
0.078811
0.0817585
0.0956394
0.0849412
0.0893226
0.224162
0.214856
0.211726
0.196732
0.140615
0.162656
0.171076
0.151435
0.194424
0.0963315
0.12077
0.11463
0.111044
0.10422
0.0994699
0.123612
0.130032
0.131213
0.115773
0.730906
0.687037
0.732789
0.133467
0.0708373
0.0790743
0.074713
0.0781517
0.0650864
0.063498
0.0619533
0.0605186
0.0588307
0.0584205
0.0597689
0.0587529
0.0741441
0.0679301
0.194005
0.195429
0.176158
0.155573
0.1426
0.125506
0.129216
0.116374
0.108725
0.101897
0.0777907
0.0812213
0.0959921
0.0856277
0.0902391
0.196333
0.189997
0.172801
0.126195
0.132678
0.142127
0.150054
0.175249
0.112162
0.107061
0.101981
0.117577
0.11505
0.122635
0.126153
0.855475
1.17255
0.321348
0.0750218
0.0880365
0.0781131
0.0665036
0.0650156
0.0628517
0.0610204
0.0603374
0.0622014
0.0711032
0.0691893
0.175154
0.173412
0.156032
0.141084
0.130885
0.119481
0.111175
0.103882
0.0975483
0.0744834
0.0782483
0.0918788
0.0823183
0.0868735
0.171672
0.173263
0.15635
0.127904
0.133963
0.140934
0.12328
0.155992
0.108651
0.104318
0.112294
0.113359
0.118378
0.198947
1.66894
1.61404
0.579591
0.0801082
0.122173
0.0672455
0.0655821
0.0627097
0.0633864
0.069009
0.0726282
0.0706923
0.156781
0.156541
0.14143
0.129762
0.12095
0.112623
0.105219
0.0989907
0.0758741
0.079843
0.0932561
0.0837555
0.0884257
0.154182
0.154669
0.142085
0.125249
0.129737
0.118804
0.141626
0.106208
0.10896
0.109898
0.112766
4.05707
0.331446
2.33272
2.47956
1.16918
4.49722
0.0682296
0.0658028
0.0670721
0.066807
0.0772232
0.0734344
0.0713263
0.139985
0.140841
0.130337
0.120652
0.112196
0.10549
0.0990715
0.0773421
0.0806352
0.0940963
0.08502
0.088967
0.13751
0.137775
0.13022
0.119148
0.112973
0.127975
0.130351
3.27203
3.60165
0.636015
3.5979
3.58057
4.88557
3.96709
6.43351
0.0691853
0.0659337
0.0704062
0.0706075
0.0943441
0.0744883
0.0709336
0.13114
0.130744
0.120701
0.112466
0.105464
0.0995873
0.0780783
0.0817625
0.094423
0.089892
0.0856633
0.129611
0.122246
0.113346
0.120803
0.12326
0.122457
2.21292
2.86081
3.18085
1.20763
4.51392
3.48152
6.20038
6.25915
0.0709381
0.0705043
0.0754151
0.134988
0.075358
0.07157
0.11844
0.118977
0.11166
0.104913
0.0994222
0.0779734
0.0825347
0.094641
0.0904024
0.0862712
0.122343
0.115437
0.116253
0.11843
0.116892
0.116214
1.93763
1.80989
2.49674
2.78426
3.44207
5.86336
4.10794
3.02879
5.86404
6.05956
0.073159
0.0746834
0.0803159
0.0744931
0.0754619
0.0775515
0.114041
0.106965
0.102066
0.0968117
0.0814784
0.0818165
0.093736
0.0890156
0.0867671
0.115173
0.112629
0.113614
0.1119
0.110958
1.52379
1.4778
2.16413
2.39529
6.31201
2.98064
5.59556
5.42221
3.68327
2.5898
5.49545
5.85225
0.074906
0.0774214
0.0775025
0.0788067
0.0819799
0.109998
0.105375
0.101391
0.0970382
0.0836363
0.0848375
0.0936752
0.0902976
0.0875764
0.109164
0.107279
0.105298
6.14601
1.19383
1.20123
1.84535
1.98306
5.89644
2.58185
5.25562
5.15537
4.96557
3.23838
2.13134
5.09664
5.6407
0.0772132
0.0780769
0.0802056
0.0816227
0.104231
0.102421
0.099878
0.096754
0.0841731
0.0862861
0.0938316
0.0910669
0.0885804
6.73231
5.57212
0.934099
0.961431
1.51154
1.46826
5.43252
2.22686
5.10384
4.80251
4.70502
4.49135
2.74415
1.57436
4.65455
5.42231
7.71444
6.19447
5.00233
0.72584
0.737729
1.09832
0.59902
4.94384
1.88993
4.96106
4.68354
4.35604
4.24519
3.98893
2.11208
0.67045
4.12979
5.19136
8.42327
7.3124
5.61312
4.43901
0.549019
0.49186
0.398244
4.42961
1.55538
3.49755
4.65101
4.2609
3.91308
3.76522
3.4253
1.04661
3.41839
9.77956
7.94437
6.84049
4.99995
3.87362
0.367084
0.127307
3.85929
1.36422
2.74138
3.05163
4.32784
3.8382
3.46221
3.23644
2.71302
2.17261
11.2171
8.98611
7.48809
6.29731
4.36035
3.27766
0.083272
3.12253
1.42687
2.37759
2.62996
3.98908
3.40476
2.9749
2.5783
1.51238
11.8439
11.1964
8.06523
7.02315
5.6584
3.67913
2.56269
1.71955
1.3082
1.27814
2.05782
2.2193
3.62347
2.93467
2.37908
1.48408
12.1217
11.5259
10.9298
7.07385
6.51633
4.8872
2.8895
1.35727
1.48533
1.1987
1.14332
1.76394
1.80847
3.2055
2.35877
1.39295
8.18498
12.1273
10.9393
10.3775
6.03239
5.9547
3.93761
1.65696
1.59759
1.38048
1.09209
1.01807
1.48113
1.38861
2.66758
1.41474
6.92027
8.0666
11.8614
10.0699
9.5215
5.00184
5.17878
2.56345
1.60919
1.48253
1.273
0.984485
0.895863
1.19435
0.949038
1.76081
6.28732
6.62121
7.72505
11.3893
8.97546
8.30313
4.25406
3.46478
1.51209
1.49314
1.36503
1.15979
0.870486
0.763159
0.869459
0.46875
6.30101
6.10276
6.19883
7.22149
10.6537
7.64119
6.74949
3.36314
1.33094
1.40528
1.37477
1.24212
1.03575
0.740109
0.587323
0.403834
6.85031
6.09934
5.7872
5.70392
6.61557
9.52212
6.08638
5.9004
1.42721
1.21903
1.29608
1.25105
1.10838
0.8897
0.566481
0.262903
8.075
6.5437
5.77324
5.38238
5.15328
5.93112
7.62561
3.77103
2.64712
1.27943
1.11041
1.18128
1.11655
0.952093
0.691084
0.250273
12.0256
7.94488
6.12345
5.36276
4.90371
4.5363
5.12294
5.11918
3.54031
2.30459
1.14511
1.00098
1.05554
0.959443
0.741517
0.334361
11.7556
12.0087
7.6015
5.63341
4.88057
4.34324
3.80779
4.02991
4.95569
3.0809
1.99865
1.02009
0.885031
0.907598
0.747942
0.371154
11.0543
11.4521
11.7167
7.09864
5.08813
4.31745
3.65742
2.87775
5.13966
4.64458
2.64855
1.71433
0.89768
0.75254
0.706829
0.377038
9.81975
11.0606
10.9223
11.1501
6.48335
4.47777
3.62891
2.76521
5.23674
4.71739
4.32279
2.23225
1.43928
0.764148
0.576798
0.348475
8.41656
9.06184
10.8582
10.1774
10.3395
5.74636
3.75185
2.7288
5.56591
4.78077
4.29212
3.98421
1.81855
1.15984
0.587332
0.259321
7.77279
7.95755
8.19142
10.4142
9.25492
9.19976
4.82643
2.80342
5.85946
5.12641
4.33418
3.86724
3.61857
1.39764
0.842416
0.262801
6.75374
7.36516
7.53264
7.30751
9.77248
8.26488
7.70061
3.52089
6.65203
6.2657
5.4241
4.67804
3.89317
3.43149
3.19911
0.951712
0.383038
6.1364
6.22214
6.89457
7.1068
6.42116
8.95123
7.24547
6.06963
5.08221
6.44236
5.93808
4.97183
4.22019
3.4441
2.95738
2.65527
0.456017
6.24911
5.56153
5.64292
6.36323
6.64565
5.53021
7.92901
5.78825
3.4087
4.53453
4.68568
6.22481
5.56924
4.49925
3.74146
2.9573
2.37266
1.72594
5.84686
4.99023
5.02487
5.73129
6.10781
4.80428
6.44991
2.94429
2.06755
4.31019
4.02592
4.25839
6.00314
5.16683
3.99683
3.21246
2.36036
1.40376
2.44259
3.56261
5.39525
4.42587
4.37839
4.96422
5.31229
3.56497
2.53716
1.63357
3.82435
3.54553
3.81481
5.77778
4.71724
3.43159
2.55226
1.35585
1.98649
3.1351
4.91565
3.86077
3.69471
4.01703
3.51943
2.18489
1.2841
3.37732
3.0908
3.34962
5.54623
4.18019
2.71252
1.43963
1.61973
2.74871
4.40954
3.26609
2.90296
2.63992
1.85606
1.00825
2.95757
2.64611
2.83206
5.30085
3.44634
1.48563
1.3147
2.39035
3.84466
2.55435
1.6798
1.55407
0.786066
2.54646
2.17937
2.16818
2.14581
1.05073
2.04454
3.11437
1.35915
1.36807
0.595966
2.1108
1.60579
1.04407
0.805801
1.68121
1.73089
0.399693
1.56792
0.662527
0.539161
1.23204
0.095879
0.646641
0.148606
0.474786
0.0862871
0.084341
0.0856279
0.0856374
0.0870848
0.086857
0.0875061
0.0875385
0.0882495
0.082738
0.0838419
0.0842683
0.085468
0.0857856
0.0869331
0.0875458
0.0918802
0.0933103
0.09465
0.0968886
0.0983367
0.0884446
0.0892437
0.0882735
0.0884322
0.0887419
0.0883793
0.0896063
0.089337
0.0903769
0.101022
0.10218
0.0814158
0.08252
0.083142
0.0842319
0.0848571
0.0858042
0.0867987
0.0878894
0.0888484
0.0898276
0.0909306
0.0922958
0.0940805
0.0955669
0.0986344
0.100129
0.10562
0.106368
0.0902313
0.0911044
0.0921593
0.0931216
0.0944974
0.0959427
0.0983178
0.089636
0.0900937
0.0896197
0.0896328
0.0905179
0.0898748
0.0918757
0.091356
0.0927015
0.0981478
0.0999619
0.110609
0.112286
0.10486
0.104612
0.109689
0.0804106
0.0814371
0.0823015
0.0833109
0.0842605
0.0852593
0.0864619
0.0873954
0.0891221
0.0902099
0.0916684
0.0929741
0.0970054
0.0984333
0.10147
0.102635
0.107158
0.108418
0.11356
0.115705
0.122069
0.122194
0.129161
0.0910776
0.0918021
0.0927628
0.0937809
0.0952508
0.0908134
0.0910862
0.0911649
0.090853
0.0924218
0.0916467
0.09512
0.094064
0.0933456
0.0956632
0.099315
0.0995465
0.104586
0.10621
0.125788
0.113778
0.121456
0.110551
0.113454
0.0800108
0.0809409
0.0820854
0.0830793
0.0843406
0.0852568
0.0867352
0.0876564
0.0892547
0.0902318
0.0924697
0.094601
0.102716
0.0998914
0.106155
0.108668
0.11311
0.114598
0.119474
0.129189
0.134851
0.135696
0.149402
0.15203
0.145739
0.154269
0.154839
0.196003
0.0920557
0.0928144
0.093635
0.0945881
0.097469
0.096225
0.0920966
0.0921331
0.092779
0.0923017
0.0952382
0.0942256
0.0934811
0.0996736
0.0983496
0.0959512
0.0983954
0.100292
0.248647
0.214711
0.307525
0.104698
0.10501
0.11052
0.112756
0.127379
0.129489
0.165344
0.144598
0.121884
0.127959
0.0807292
0.0813096
0.0829219
0.0835316
0.085316
0.0859005
0.0878742
0.088701
0.0918565
0.0910881
0.0953489
0.0967375
0.101595
0.103953
0.113472
0.111664
0.120882
0.129682
0.136659
0.137435
0.149273
0.71425
0.70229
0.493746
0.162244
0.171067
0.186336
0.192644
0.202485
0.217782
0.218381
0.491326
0.292879
6.43696
7.00318
6.85435
6.54044
7.16324
7.18517
6.95629
6.58307
0.093196
0.0935578
0.0945592
0.0954942
0.0971855
0.0961145
0.093479
0.0932972
0.0952796
0.0944605
0.0939421
0.1019
0.100517
0.0992004
0.0980619
0.0967066
0.0996338
0.105659
0.10157
0.104959
6.03592
5.06847
1.86222
1.31931
0.772746
0.174836
0.24957
0.305605
0.564865
0.112748
0.113125
0.114101
0.11366
0.12575
0.127873
0.139708
0.136111
0.164094
6.22931
6.92006
4.54373
7.14376
7.20538
7.18995
5.44535
6.07899
6.16766
7.17399
0.0869472
0.0845329
0.0886686
0.0873262
0.0910589
0.0900469
0.0936623
0.0934938
0.0966509
0.0964161
0.100407
0.100414
0.108082
0.11117
0.116731
0.115748
0.121442
0.146852
0.124604
0.159717
0.211135
0.203493
0.247629
0.248783
0.243971
1.28012
1.78647
3.42031
2.48529
1.29594
0.996682
0.356814
0.394911
0.499092
0.505283
1.02162
0.59624
0.580142
3.88705
6.05891
4.96693
5.26969
6.15849
6.68994
6.92254
6.9157
4.97682
4.92468
7.12839
7.08242
5.57548
5.79492
6.38259
7.01949
6.59975
6.9646
0.0944608
0.0946744
0.0955555
0.096853
0.0972286
0.0962144
0.0957139
0.0950039
0.094638
0.103986
0.102515
0.101115
0.0999382
0.0988843
0.0978917
0.0975106
0.100505
0.100883
0.104796
0.105302
0.10965
0.104605
2.68341
4.52722
3.53027
5.91383
4.61592
1.67634
2.70605
1.43476
0.753113
0.11307
0.609699
0.199992
0.34839
0.256075
0.123218
0.120183
0.129202
0.124183
0.132145
0.130855
0.149099
0.143189
0.200305
6.24639
7.08751
5.94657
4.28951
4.70198
3.65271
7.32312
7.42701
7.24684
5.99597
4.52814
5.61499
0.188886
0.103212
2.11129
0.646616
0.135775
0.10539
0.124283
0.1052
0.119339
0.104634
0.117833
0.112414
0.109878
0.121435
0.120468
0.143035
0.175989
0.164978
0.201339
0.283315
0.252508
0.336674
0.661771
0.377522
0.407556
0.903206
1.02972
0.552177
0.485836
0.656007
0.633733
0.798896
0.799716
1.92864
2.54698
3.68305
2.97835
2.08573
1.51588
1.1655
1.1698
1.75777
1.31122
1.42972
4.93873
4.32214
5.15494
6.16959
5.86796
6.84965
6.6458
7.10505
7.01146
7.05394
5.22047
5.77723
6.98943
7.00357
6.84515
6.81365
6.51197
0.0976861
0.0956965
0.095757
0.0966027
0.0971998
0.0964497
0.0961672
0.098339
0.106113
0.104606
0.103011
0.101721
0.100582
0.0994377
0.0988004
0.0978642
0.108095
0.10574
0.107976
0.110326
0.108803
0.110229
0.101442
0.101335
0.101774
0.103442
0.113994
0.108267
0.109755
0.105482
4.62929
4.09888
3.03576
0.983796
2.53521
1.7413
0.119396
0.132811
0.131642
1.09833
0.262795
0.561298
0.364381
0.143585
0.139628
0.152502
0.148562
0.176002
0.165125
0.27682
4.41609
6.61367
7.22252
6.23315
5.30813
7.45532
3.35748
3.90584
2.72645
7.66194
7.44945
6.66642
5.50199
4.00031
4.7441
4.73981
1.19321
0.340592
4.56672
3.58419
0.686556
0.335011
0.521619
0.254462
0.401531
0.216256
0.342322
0.182604
0.247538
0.446181
0.779899
0.555019
0.962851
0.620935
0.758335
1.34625
1.67198
1.83
1.18534
1.19742
1.8609
2.09379
1.24466
1.37538
1.67307
1.58412
1.95985
1.67455
3.94946
2.76648
3.31147
3.14347
2.68394
2.53688
2.909
2.19031
2.70144
5.38887
4.52472
6.74405
6.0597
6.36863
7.07485
6.97273
6.92171
7.00129
6.5261
6.61389
0.10997
0.108458
0.0970661
0.0982454
0.0975379
0.0969996
0.0970138
0.0985761
0.099699
0.104782
0.102922
0.102217
0.10075
0.100236
0.0991504
0.0988471
0.0980958
0.106734
0.104837
0.105984
0.107102
0.105414
0.106762
0.101126
0.101728
0.103036
0.105656
0.12063
0.113628
0.114902
0.10856
1.79912
2.65253
3.52826
0.129604
0.14269
0.141371
0.164035
0.159654
0.784252
1.83935
0.360445
0.709623
0.198748
0.182651
0.273948
0.236042
0.369525
3.59626
5.12914
4.76317
6.87873
6.9853
7.36306
7.79353
7.72024
2.6555
3.60361
7.40905
6.47198
5.72713
4.05223
4.76355
4.77081
2.08618
4.79466
5.11643
5.63873
3.79041
2.395
5.7865
6.27722
3.38028
1.73725
2.62085
1.23117
2.01857
1.02301
1.35986
1.58013
1.20678
2.18776
1.79515
1.73106
1.70381
1.82579
2.77653
2.871
2.99917
3.31605
2.5355
2.37396
3.40262
3.59105
2.57471
2.82584
3.30476
3.1157
3.49701
4.70764
4.18943
4.54842
3.71796
4.26378
4.2319
3.99032
4.41094
6.37142
5.70662
6.97062
6.81819
6.912
6.92629
6.35266
6.45689
0.111828
0.109318
0.107507
0.106011
0.0985782
0.0984301
0.0987392
0.0995379
0.100676
0.103867
0.102439
0.101764
0.100651
0.100239
0.0994196
0.0994651
0.103702
0.104573
0.103088
0.104272
0.103446
0.104478
0.102075
0.102168
0.104042
0.109967
0.105689
0.102614
0.130516
0.121546
0.122583
0.115431
0.138655
3.15799
2.29784
0.154963
0.15161
0.184943
0.179551
0.263843
0.312997
0.249506
0.79116
2.07721
0.956626
0.49913
0.417106
0.863427
5.07863
4.2331
7.38359
6.7592
7.96404
7.84996
7.56631
7.28936
6.88396
6.53835
0.210534
0.705376
4.68029
5.55246
1.28233
3.89433
5.77816
5.47017
6.30826
6.05832
5.52901
6.20877
5.92857
5.31235
5.3735
3.55649
4.28989
3.29624
2.92007
2.8978
4.23715
3.34023
4.18587
3.51523
3.69374
4.28966
4.6583
4.60109
4.71089
4.25138
4.11756
3.76097
4.91988
5.09262
4.25965
4.4456
5.11549
5.01072
5.81504
6.08016
5.63493
5.50626
5.81004
5.48559
5.69698
6.82131
6.70148
6.68398
6.72497
6.07323
6.17657
0.0883033
0.109364
0.112428
0.111046
0.109207
0.106993
0.105569
0.104043
0.0996432
0.0998245
0.100165
0.100278
0.102643
0.102369
0.101657
0.10091
0.10042
0.10006
0.101263
0.102194
0.101461
0.102485
0.102115
0.103026
0.102249
0.106254
0.107081
0.116202
0.105185
0.106728
0.142635
0.126329
0.130096
0.117074
0.159552
0.186487
0.168529
4.47251
2.79457
0.24944
0.210291
0.49046
0.408528
1.21303
1.04702
0.884659
2.32934
3.05971
1.65906
7.34227
6.22778
8.09647
8.21283
7.95836
7.56397
7.10547
6.74725
0.148025
0.453034
4.10854
6.35629
0.844072
2.38463
6.33676
6.15561
5.94283
6.5457
6.07204
5.58294
6.94257
6.23694
6.87148
6.45779
6.04471
6.0367
5.64041
4.70208
4.75367
5.93686
5.41719
5.16845
5.3948
5.61138
5.49974
5.75661
5.68198
5.6364
5.58245
5.88751
5.13213
5.41442
5.92317
5.91102
5.63874
5.73434
6.03635
6.0764
6.29395
6.22864
6.6366
6.40282
6.38146
6.46216
6.51038
5.76763
5.92058
0.0812867
0.0851352
0.0894955
0.108544
0.111028
0.110166
0.108877
0.108317
0.106996
0.105156
0.102738
0.104171
0.107606
0.108723
0.101437
0.100385
0.0997188
0.0998978
0.100681
0.0999316
0.0998272
0.100272
0.100895
0.100628
0.101575
0.101466
0.102139
0.103057
0.105545
0.108745
0.114535
0.117212
0.110824
0.13908
0.163203
0.12574
0.142489
0.177439
0.231498
0.20078
0.251311
0.390055
0.285243
6.40985
5.35251
1.11871
0.818378
2.52862
1.97352
4.3874
5.80202
3.95235
8.41284
8.36476
8.50091
8.02539
7.70592
7.19519
0.133009
0.320102
3.27299
6.21648
0.559015
1.58584
6.09929
6.91306
5.33416
5.50434
6.67884
5.91887
6.84427
6.61162
5.25083
5.7654
6.50693
6.38551
6.50626
6.22888
6.43499
5.79572
5.99352
6.12437
6.12121
5.87712
5.92082
5.76589
5.79623
5.75977
5.65384
5.70008
5.57783
5.42398
5.41723
5.94674
5.93592
5.96745
5.85144
6.00724
5.95828
5.98516
5.86753
5.99562
6.23308
6.29596
6.00701
5.5855
5.75098
0.0798488
0.0815199
0.0836103
0.0882662
0.0916338
0.107688
0.107288
0.106747
0.105892
0.105941
0.101945
0.103819
0.103084
0.104861
0.105327
0.105129
0.104386
0.105593
0.103394
0.103374
0.101401
0.101474
0.103493
0.100556
0.100018
0.100394
0.100161
0.101775
0.10029
0.100535
0.100847
0.101112
0.101415
0.101964
0.102342
0.105684
0.111396
0.107753
0.115667
0.124323
0.122123
0.130392
0.158471
0.182836
0.142491
0.161817
0.211539
0.277705
0.679124
0.61358
0.483631
0.914011
1.8372
1.79569
8.61292
7.78441
4.25775
4.42754
6.75131
7.91889
6.74939
9.19039
8.70954
8.47322
8.03782
0.125644
0.245094
2.48009
5.11466
0.386172
1.08097
5.20512
7.04074
5.64778
5.15751
6.79144
6.34769
5.66369
5.30652
4.96194
4.94021
6.01044
6.12599
5.20825
5.65335
5.40155
5.8387
5.75949
5.79498
5.78917
5.42187
5.45107
5.01482
5.00203
4.89218
5.17021
4.77349
4.62987
4.06486
3.69969
4.36675
4.45217
5.39125
5.81392
5.81708
5.30363
5.40259
5.45385
5.40815
5.04294
5.47756
0.105087
0.0799024
0.0806982
0.0819031
0.0839083
0.0862954
0.0906046
0.0941666
0.0809471
0.0809732
0.0825053
0.0822594
0.0844167
0.0837401
0.0994837
0.0998617
0.0976156
0.0980875
0.0956138
0.0962184
0.0934577
0.0942582
0.0866415
0.0856733
0.088993
0.0876982
0.0912491
0.0921051
0.0898987
0.104495
0.103983
0.103446
0.103806
0.102818
0.102497
0.103224
0.102315
0.102511
0.101934
0.103083
0.100439
0.100736
0.098546
0.0988951
0.102414
0.100981
0.10222
0.100842
0.101599
0.101809
0.101608
0.101806
0.102009
0.102694
0.103011
0.103095
0.102794
0.103467
0.109281
0.105133
0.118744
0.112469
0.123761
0.137581
0.132678
0.148882
0.186474
0.235206
0.16792
0.200935
0.291745
0.635749
3.16329
2.39694
3.24127
1.46934
3.15567
5.22882
6.03392
9.54427
9.42321
8.36617
9.49339
8.55167
9.6568
8.84464
0.118893
0.195766
4.60835
1.71756
2.76449
0.285453
0.752155
6.18856
6.87953
5.79491
5.20484
6.58352
6.1333
6.62729
4.7733
4.68339
4.68906
5.27861
5.18841
4.42675
4.66452
4.68002
4.4298
4.85232
4.99533
4.53547
4.47186
4.07641
4.01887
3.53985
3.60961
3.83253
2.86457
2.87768
2.57352
2.58388
3.3145
4.85866
4.73328
3.61423
4.18013
4.02311
0.105238
0.0928779
0.0964611
0.0817878
0.0827004
0.0843146
0.0865858
0.0892282
0.0826024
0.0829242
0.0837871
0.0838496
0.085258
0.0851777
0.0966907
0.0972924
0.0948327
0.095654
0.0928284
0.0938452
0.0907279
0.0920258
0.0870418
0.0866924
0.0887903
0.090121
0.0883484
0.102436
0.101959
0.101719
0.102487
0.102299
0.100005
0.100502
0.100096
0.10115
0.0982451
0.0987095
0.0964144
0.0969364
0.102126
0.102778
0.102457
0.104148
0.103577
0.103976
0.104325
0.103831
0.104636
0.105737
0.104367
0.104614
0.104146
0.112438
0.107893
0.108355
0.126988
0.117312
0.13393
0.156683
0.151273
0.177425
0.20873
0.422852
0.204711
0.275132
0.616593
1.99401
6.18965
6.92955
6.09806
7.3576
3.9776
6.84265
8.50998
9.46747
10.4539
10.1626
10.2591
0.116434
0.146181
0.201178
2.92348
4.90773
1.11632
2.17685
0.444602
5.46917
6.40797
5.35437
4.77197
5.88367
5.50217
6.33779
6.47735
6.05872
5.81063
4.21266
4.36549
4.39345
4.28831
3.94383
4.01383
3.92849
3.81745
3.963
3.987
3.62795
3.60149
3.11161
3.19178
2.53071
2.64747
2.09506
2.14649
1.908
1.82301
3.29259
1.83757
2.80832
4.94086
0.0960535
0.10195
0.0893517
0.0930919
0.0839006
0.0852488
0.0871775
0.084543
0.0849127
0.0854578
0.0855415
0.0866574
0.0866528
0.0947542
0.0953831
0.0931136
0.0938998
0.0913909
0.0922771
0.0897605
0.0908071
0.0882036
0.0892998
0.087921
0.10093
0.100875
0.100874
0.100672
0.0982254
0.0990549
0.0987759
0.100148
0.0965681
0.0972837
0.0949501
0.095669
0.102736
0.102124
0.104913
0.10395
0.109269
0.107568
0.110358
0.109458
0.106665
0.107695
0.110616
0.108396
0.106325
0.112139
0.107601
0.107718
0.121184
0.120578
0.13938
0.13716
0.174936
0.171434
0.232866
0.197737
0.317261
0.728497
0.261553
0.399646
1.73182
4.2263
6.44654
9.54077
9.62335
9.52732
9.79308
10.736
10.7012
10.9972
0.710055
0.106189
0.110455
0.137992
0.181699
0.331709
3.99335
1.61558
2.4263
5.61012
4.40919
4.3739
4.83353
5.62505
6.04331
4.82457
5.30258
6.14279
6.0873
5.61306
5.18766
3.78878
3.97596
3.62143
3.63963
3.52903
3.54846
3.41327
2.95369
3.22993
3.19766
2.44871
2.638
1.98455
2.15578
1.63661
1.7571
1.49821
1.47358
0.0939355
0.0973842
0.0864672
0.0881748
0.0909335
0.0863
0.0877668
0.0870143
0.0874331
0.0878723
0.0879424
0.0933341
0.0942506
0.0916773
0.0929246
0.0903375
0.0914924
0.0890377
0.0902306
0.0890409
0.101334
0.0999626
0.100115
0.100505
0.0973036
0.0981382
0.0998361
0.0982541
0.0957118
0.0966617
0.0943775
0.0951852
0.105275
0.10402
0.104051
0.107984
0.106116
0.114916
0.114246
0.113484
0.115825
0.122404
0.119655
0.120122
0.117312
0.116225
0.11235
0.110093
0.120127
0.11674
0.123324
0.146991
0.136981
0.216507
0.216989
0.170436
0.20291
0.311331
0.314175
1.00434
2.03184
0.895911
3.80797
5.77496
7.66528
10.3479
11.7329
11.542
11.4744
1.49602
2.00913
0.100018
0.539432
1.02714
0.108011
0.112641
0.120576
0.153918
0.195343
0.316076
3.90084
3.15435
5.57876
5.13456
3.91075
4.27551
5.87276
5.9744
4.2893
4.80371
5.75758
5.58938
4.93935
3.37364
3.5562
2.95521
3.10187
3.11385
2.9644
2.52391
2.658
2.09078
2.27473
1.75614
1.89736
1.43176
1.60795
0.0965752
0.0890841
0.0922294
0.0943452
0.0946813
0.0884549
0.0900446
0.0886781
0.0895388
0.0893462
0.0896051
0.0927244
0.0938908
0.0916055
0.0925775
0.0904046
0.0914577
0.0903344
0.0943907
0.100275
0.100002
0.101445
0.0992533
0.0981084
0.097025
0.101701
0.0971243
0.0962067
0.0961252
0.105107
0.103395
0.106931
0.109557
0.109697
0.114802
0.113543
0.123163
0.125325
0.128355
0.127278
0.140605