/*--------------------------------*- C++ -*----------------------------------*\
  =========                 |
  \\      /  F ield         | OpenFOAM: The Open Source CFD Toolbox
   \\    /   O peration     | Website:  https://openfoam.org
    \\  /    A nd           | Version:  8
     \\/     M anipulation  |
\*---------------------------------------------------------------------------*/
FoamFile
{
    version     2.0;
    format      ascii;
    class       volScalarField;
    location    "5000";
    object      p;
}
// * * * * * * * * * * * * * * * * * * * * * * * * * * * * * * * * * * * * * //

dimensions      [0 2 -2 0 0 0 0];

internalField   nonuniform List<scalar> 
4109
(
-0.0055257
-0.0177856
-0.00879489
-0.0287616
-0.0299024
-0.0185354
-0.0287141
-0.0146654
-0.039232
-0.0397024
-0.0390232
-0.0429669
-0.00912938
-0.0228962
-0.0317831
-0.046374
-0.0507373
-0.0467466
-0.045116
-0.0419971
-0.00271888
-0.032453
-0.0327669
-0.0537994
-0.0546434
-0.0622779
-0.00304271
-0.00826567
-0.00559624
-0.052083
-0.0456147
-0.0470693
-0.0299943
-0.0869031
-0.0618488
-0.057275
-0.0622792
-0.0762963
-0.0165442
-0.00504681
-0.000188872
-0.0132561
0.000367348
-0.0561596
-0.0518656
0.0902538
-0.0558653
-0.0471418
-0.055094
-0.0764567
-0.0683446
-0.0659182
-0.0717163
-0.08849
-0.0239834
-0.0109744
-0.0052012
0.0150032
-0.00959607
-0.0210383
-0.0678268
0.0650762
-0.0617057
-0.056262
-0.0523746
-0.0337364
-0.0585405
-0.0519957
-0.0577838
-0.053727
-0.105417
-0.0804835
-0.125725
-0.125609
-0.127189
-0.0299803
-0.0327793
-0.0231686
-0.0123399
-0.0206194
-0.0118104
-0.0150883
-0.0160255
-0.0261993
0.015627
-0.206774
0.123729
-0.236296
-0.00807641
-0.0812758
-0.0713062
-0.0615834
-0.0557827
-0.0534119
-0.0541325
0.031617
-0.0530967
-0.0620705
-0.125479
-0.108882
-0.0979341
-0.139532
-0.137419
-0.14565
-0.151151
-0.0344616
-0.0374534
-0.0399381
-0.0230782
-0.00478529
0.0639266
-0.0153894
-0.0156419
-0.0236859
-0.030249
-0.578989
0.11211
0.0118597
-0.00553217
-0.309747
-0.120372
0.261523
-0.0883523
-0.0778301
-0.0696233
-0.0563265
-0.0551189
-0.0465142
-0.0744615
-0.0633435
-0.057013
-0.11995
-0.111699
-0.148659
-0.133538
-0.178189
-0.166577
-0.0416327
-0.0476022
-0.0504579
-0.0340491
0.00851474
0.059557
-0.0129804
-0.0243359
-0.0271918
-0.0345721
0.0879514
0.0819937
-0.215381
-0.100531
-0.137553
0.0954179
-0.0863011
-0.0842257
-0.0757728
-0.0601869
-0.0486892
-0.0438085
-0.0396934
-0.0061131
-0.0287012
-0.109037
-0.100058
-0.148134
-0.123458
-0.166353
-0.181518
-0.214805
-0.0520234
-0.0581454
-0.062791
-0.0509481
0.0079479
0.0295369
-0.0199104
-0.0237796
-0.0259457
-0.0428247
0.0191598
-0.15809
0.0161553
-0.0697563
-0.0838704
-0.0218754
-0.0804068
-0.0853475
-0.0724156
-0.0459557
-0.0461258
-0.0282024
-0.0139233
-0.010779
-0.0931195
-0.100527
-0.138644
-0.11203
-0.157498
-0.185367
-0.216395
-0.256863
-0.0663509
-0.0725294
-0.0757083
-0.0670705
-0.0157636
0.00394738
-0.0101244
-0.0119771
-0.0242149
-0.0568347
-0.0928748
-0.103696
-0.0847541
-0.0154997
-0.0944043
-0.0463055
-0.0768932
-0.0782844
-0.0945662
-0.0488082
0.0960049
0.0667244
-0.0808416
-0.0860202
-0.127752
-0.0967928
-0.147382
-0.178882
-0.215669
-0.256424
-0.302693
-0.0825019
-0.0866985
-0.0873162
-0.0801296
-0.00856826
0.0293776
0.00988381
0.0131875
-0.0990116
-0.0381963
-0.0736387
-0.0639107
-0.0631232
0.0544979
-0.138892
-0.208991
-0.0526313
-0.0851221
-0.0604813
-0.090166
0.060369
0.0674199
-0.0633877
-0.065601
-0.111675
-0.0767651
-0.131074
-0.1699
-0.206587
-0.249155
-0.298442
-0.349637
-0.104269
-0.0951166
-0.091867
-0.116359
0.020935
0.101262
-0.0173437
-0.11326
-0.0906909
-0.0616818
-0.175262
-0.129534
-0.231287
0.0633965
-0.197166
0.0100476
1.07774
-0.0566352
-0.0103633
-0.33766
-0.0965702
-0.0537014
-0.0291799
-0.0863326
-0.0444069
-0.108921
-0.153062
-0.196144
-0.23743
-0.285899
-0.333449
-0.370419
-0.383104
-0.113601
-0.116874
-0.108248
-0.134146
-0.130554
0.0197574
0.100825
-0.0554366
-0.107508
-0.0842425
-0.0651199
-0.222391
-0.0284578
-0.0484693
0.402584
0.0500357
1.08362
1.12336
1.13588
1.02829
1.02854
0.970122
-0.661738
-0.249237
-0.148225
-0.112597
0.0145976
-0.046517
-0.0388364
-0.0806457
-0.132072
-0.178121
-0.371179
-0.226166
-0.27201
-0.322445
-0.394595
-0.400853
-0.411643
-0.386611
-0.136958
-0.136486
-0.153443
-0.148478
-0.125117
-0.0256623
-0.0109663
-0.0909943
-0.103956
0.335312
0.118043
1.0125
-0.105104
1.19948
1.16321
1.16929
1.0774
1.19631
1.21828
-0.314895
-0.36246
-0.329522
0.946358
0.921688
0.992734
0.909335
1.01624
0.109326
0.164559
0.16089
0.0233643
-0.0274695
-0.399236
-0.10477
-0.109036
-0.155193
-0.204855
-0.360131
-0.260973
-0.310929
-0.4378
-0.41913
-0.424808
-0.437712
-0.427411
-0.438046
-0.166548
-0.159477
-0.174348
-0.165303
-0.142073
-0.122753
-0.0967285
-0.153516
-0.104158
0.778442
0.616073
1.24443
1.2317
1.15583
1.27666
1.30527
-0.247489
-0.192606
-0.195081
-0.48458
-0.319591
0.826856
0.811862
0.842265
0.941771
1.08249
-0.0894015
0.445941
0.435814
0.0322724
-0.078916
-0.394397
-0.42099
-0.114613
-0.130981
-0.17379
-0.234378
-0.354386
-0.302834
-0.473107
-0.451152
-0.484218
-0.474711
-0.518198
-0.597495
-0.197972
-0.185776
-0.120216
-0.203184
-0.178697
-0.158331
-0.138522
-0.223515
-0.108752
-0.0778354
-0.104864
-0.26316
1.20459
1.32556
1.32264
1.23108
1.37071
1.40677
-0.797875
-0.0186529
0.187763
-0.0815099
-0.0975404
0.629374
0.410068
-0.31375
-0.168843
0.716102
0.842492
0.987389
1.16474
-0.155542
0.0239488
0.132117
-0.0273943
-0.101697
-0.401071
-0.445912
-0.128885
-0.144111
-0.19175
-0.269489
-0.354515
-0.52841
-0.491482
-0.552971
-0.553575
-0.655188
-0.867475
-0.232024
-0.244855
-0.216092
-0.123121
-0.134705
-0.17453
-0.194045
-0.150597
-0.24536
-0.215864
-0.521977
-0.250623
-0.239664
-0.0476051
1.24972
1.23319
1.16504
1.42861
1.42528
1.32434
1.48543
1.53888
-0.632257
-1.19526
0.0451463
0.2001
0.0719368
0.402535
0.584046
-0.0992942
0.0131245
0.711481
0.870328
1.07776
1.27787
-0.257186
-0.225655
-0.22938
-0.0576224
-0.0470111
-0.101421
-0.414403
-0.477165
-0.136591
-0.160722
-0.225729
-0.323342
-0.539944
-0.597688
-0.643832
-0.667019
-0.869534
-1.17157
-1.45095
-0.269974
-0.282553
-0.145869
-0.140796
-0.165307
-0.185395
-0.20959
-0.281934
-0.242636
-0.202823
-0.0788274
0.366289
1.32517
1.30185
1.23934
1.06961
1.16142
1.54944
1.55033
1.43795
1.59932
1.63052
-0.394059
-0.997989
-1.71258
0.550439
0.253372
0.353026
0.129589
0.184654
0.730948
0.967149
1.22421
1.41106
0.302488
-0.185725
-0.252234
-0.261352
-0.101219
-0.0213654
-0.0521058
-0.39412
-0.477962
-0.198572
-0.135265
-0.285769
-0.568051
-0.663917
-0.756183
-0.829886
-1.09983
-1.38821
-1.76774
-2.0577
-0.31546
-0.320914
-0.120912
-0.147974
-0.166132
-0.187304
-0.223691
-0.318092
-0.28345
-0.244973
-0.048763
0.0238367
1.43139
0.967508
1.34117
1.27434
1.14689
1.67599
1.6803
1.56765
1.722
1.73572
1.70104
-0.110588
-2.1765
-0.695811
-1.36904
0.336949
0.547753
0.369442
0.824683
1.15458
1.38461
1.56178
0.0280851
-0.113819
-0.173964
-0.141636
-0.0751016
0.0938165
0.0347202
-0.481416
-0.371577
-0.264354
-0.182538
-0.601669
-0.736794
-1.00267
-0.872918
-1.30749
-1.96685
-1.62625
-2.26186
-2.49948
-0.359712
-0.356655
-0.355853
-0.134788
-0.155888
-0.195402
-0.246959
-0.321137
-0.282397
-0.087294
-0.0734134
1.55462
1.43126
0.822678
0.955389
1.33487
1.21891
1.04383
1.7943
1.78935
1.70843
1.84536
1.8397
1.81613
0.159028
-2.72851
-0.336357
-1.7826
-0.950597
0.495053
0.658278
0.394127
1.02756
1.33415
1.55745
1.72955
0.019894
-0.0203875
-0.0983232
-0.102031
0.0295654
0.178562
-0.00201387
-0.511215
-0.358685
-0.268667
-0.680302
-0.836032
-1.16722
-1.00313
-1.55539
-1.96324
-2.32558
-2.73457
-3.09646
-0.401062
-0.393671
-0.396184
-0.364893
-0.142149
-0.16326
-0.218452
-0.281108
-0.323245
-0.0768841
-0.0422292
1.67719
1.58239
1.51658
1.41408
0.634271
0.814895
0.925972
1.29194
1.15664
1.00517
0.421789
1.88403
1.87176
1.79038
1.85934
1.95434
1.91828
1.95414
0.05704
-2.27473
-0.508255
-1.31439
0.656802
0.862532
0.429136
1.91238
1.22008
1.53081
1.75936
0.0454249
-0.0419615
-0.0820482
-0.0521803
-0.163653
0.0328064
0.0557853
-0.533532
-0.345542
-0.896022
-0.758157
-1.31818
-1.66335
-1.15499
-2.2112
-2.84214
-3.36249
-0.416401
-0.449964
-0.444838
-0.41561
-0.373253
-0.15692
-0.182174
-0.25441
-0.324456
-0.0772013
-0.0297796
-0.396746
-0.339747
1.69464
1.61853
1.50231
1.37909
0.64299
0.810952
0.944942
1.23249
1.0884
0.45597
0.207735
0.0081159
-0.160147
-0.274577
1.91013
1.94359
1.87819
1.79987
2.09515
2.00613
2.03619
1.99951
-0.0357146
-1.73912
-0.792544
1.0479
0.783668
0.641942
0.382281
2.20264
1.98315
1.44615
1.77986
0.0309463
-0.110767
0.0174468
0.498065
-0.35123
-0.0492025
-0.724718
-0.493497
-1.5604
-1.15071
-1.92886
-2.78834
-3.50357
-0.464403
-0.490703
-0.474226
-0.433858
-0.379008
-0.177192
-0.220606
-0.303637
-0.0575397
-0.07142
-0.334181
-0.440584
-0.371258
1.71353
1.60557
1.47738
1.32182
0.661272
0.833969
1.00225
1.15633
0.496674
0.254378
0.333685
-0.331054
0.0549582
-0.244617
-0.114145
1.89868
1.96435
1.81756
2.03563
2.24994
2.12653
2.08062
2.3812
-0.247287
-1.13994
1.28087
1.15695
1.02089
0.999493
0.319815
2.07102
2.34313
1.78059
0.219009
0.14802
0.901291
0.566028
-0.251204
-0.39118
-0.877025
-0.564985
-1.67073
-2.56245
-3.49793
-0.519279
-0.532747
-0.505576
-0.451623
-0.368977
-0.228974
-0.280451
-0.0937328
-0.106919
-0.4112
-0.520346
1.83081
1.71823
1.58593
1.428
1.23783
0.69131
0.884108
1.05965
0.534742
0.378461
0.188992
-0.41631
-0.367486
0.0382686
-0.278276
-0.137629
1.92365
2.00359
1.94429
2.12133
2.55365
2.39877
2.23057
2.53043
1.94629
-0.483644
1.71646
1.59035
1.43846
0.94013
0.234325
2.36176
2.20595
2.52564
0.197995
0.635959
2.16063
0.458174
0.476492
-1.23387
-0.7686
-2.15795
-3.33661
-0.587195
-0.581811
-0.544815
-0.462405
-0.298138
-0.362568
-0.155639
-0.1492
-0.522095
-0.627766
1.83592
1.71172
1.54979
1.33435
1.13061
0.738689
0.935001
0.573574
0.381772
0.187538
-0.503746
-0.441405
-0.000121053
-0.334431
-0.183308
2.08319
2.02814
2.28245
2.93829
2.7158
2.73354
2.55295
2.00235
1.88054
1.55901
0.983426
2.28343
2.7204
3.03263
0.120912
0.849293
-0.129697
-0.198245
-1.67421
-0.963146
-2.98714
-0.655811
-0.645896
-0.590487
-0.295613
-0.454181
-0.346478
-0.648301
-0.720509
1.69368
1.84696
1.4579
1.20355
0.998061
0.783074
0.602892
0.394796
0.170855
-0.626487
-0.554921
-0.0558808
-0.432432
-0.262456
2.13717
2.23335
2.52587
3.2482
2.9817
2.83285
3.49454
2.04407
2.12894
1.7324
2.66853
3.11668
3.54151
-0.208319
0.0811283
0.121244
-0.195377
-2.39559
-1.35345
-0.746244
-0.717288
-0.487115
-0.603376
-0.621154
-0.760677
-0.842937
1.62979
1.82846
1.32119
1.07332
0.836869
0.638086
0.401517
0.140847
-0.753877
-0.685201
-0.120487
-0.550752
-0.35747
2.25259
2.4225
2.80865
3.51039
3.17259
3.92301
2.02894
2.44878
3.12978
3.71696
4.23606
-32.1653
-0.239867
0.284368
0.336233
-0.404372
-31.4253
-0.852631
-0.764874
-0.888968
-1.00601
-0.709778
-0.912231
-0.99359
1.75087
1.51174
1.19619
0.909855
0.688987
0.411983
0.105669
-0.92432
-0.853704
-0.198634
-0.699789
-0.475145
2.65356
2.34195
3.28945
3.97026
4.5981
2.52015
2.07506
-34.2451
-32.1657
-0.148279
0.14933
0.193335
-29.3944
-31.2998
-31.6624
-0.989265
-1.04013
-1.17269
-1.19778
-0.825254
-1.11779
-1.19061
1.716
1.41319
1.03265
0.778826
0.429516
0.0512311
-1.17509
-1.09416
-0.311724
-0.638754
-0.906132
3.09139
3.90842
4.73258
2.93778
2.51668
2.07855
-35.2266
-34.3145
-32.1665
-0.504239
-28.8036
-31.0402
-33.8593
-30.8738
-1.32382
-1.49531
-1.54163
-1.34446
-1.43012
-1.46571
1.64081
1.24273
0.940832
0.469619
-0.00796839
-1.56725
-1.43738
-0.449324
-0.843373
-1.17685
3.75758
4.71411
2.85087
3.5092
2.52523
2.06848
-36.0623
-35.3735
-34.3484
-32.1506
-34.9217
-27.3777
-28.562
-30.7875
-33.9953
-30.6621
-1.76603
-1.98103
-2.32076
-1.92802
-1.76941
-1.93934
1.51309
1.01682
0.453725
-0.103182
-2.15662
-1.86662
-0.628558
-1.10157
-1.51635
4.54675
3.21317
4.19954
2.76705
2.20172
-36.0722
-35.4982
-34.3649
-32.1302
-33.726
-35.1619
-27.5213
-27.3793
-28.4336
-30.5603
-33.9091
-30.6476
-2.30521
-2.89605
-2.43842
-2.56386
-2.70007
1.60684
1.00455
0.376739
-0.258815
-2.53308
-2.25151
-0.86287
-1.40903
-1.88486
3.72352
3.13524
2.45465
-38.6442
-35.9468
-35.5848
-34.3748
-32.1072
-33.7947
-35.3247
-25.41
-27.5597
-27.3485
-28.3415
-30.3531
-33.784
-30.5676
-3.21672
-3.36492
-3.41167
-3.36287
1.74516
1.00902
0.258982
-0.473099
-3.13255
-2.76618
-1.1563
-1.77333
-2.31543
-41.467
-38.7524
-35.8301
-35.6465
-34.3864
-32.0845
-33.9304
-35.484
-24.9791
-25.4289
-27.5895
-27.3005
-28.2694
-30.168
-33.6401
-30.3995
-46.1334
-41.6608
-38.8257
-35.7428
-35.6917
-34.4003
-32.0615
-34.0444
-35.656
-21.0043
-25.1594
-25.4441
-27.5929
-27.2737
-28.1977
-30.049
-33.4919
-30.1979
-48.7743
-45.9736
-41.771
-38.8868
-35.6841
-35.7271
-34.4166
-34.1304
-35.845
-25.3353
-20.8067
-25.2921
-25.4434
-27.5774
-27.263
-28.121
-33.3724
-93.9557
-48.3156
-45.9449
-41.8493
-38.9168
-35.6458
-35.7499
-34.1804
-36.0193
-20.0852
-26.1165
-20.8155
-25.3564
-25.4419
-27.5526
-27.2689
-33.319
-30.0623
-103.251
-47.1815
-46.0014
-41.9087
-38.9228
-35.6262
-34.1812
-21.6782
-20.2047
-26.9411
-20.8447
-25.381
-25.4424
-27.5275
-27.2759
-44.1819
-30.3349
-112.21
-45.9412
-46.0823
-41.9399
-38.9123
-34.1505
-20.939
-21.7449
-20.2739
-27.7273
-20.8795
-25.3831
-25.4492
-27.518
27.055
-51.648
-29.8744
-120.305
-44.6925
-46.1546
-41.9475
-38.8883
-20.8913
-20.8965
-21.8232
-20.3452
-28.4561
-20.9241
-25.3767
-25.4572
34.6273
30.0202
-59.9731
-29.2056
-127.444
-43.4314
-46.1589
-41.9314
-20.4723
-20.8356
-20.8562
-21.8783
-20.4311
-29.1623
-20.953
-25.3857
47.1943
35.6473
32.9745
-67.6775
-28.432
-134.189
-42.2747
-46.0928
-20.4789
-20.4035
-20.781
-20.8222
-21.9166
-20.5278
-29.8455
-20.9426
49.9522
48.0479
36.7052
35.124
-74.6783
-27.5343
-141.254
-41.4934
-20.9058
-20.4076
-20.3303
-20.728
-20.7965
-21.9447
-20.6224
-30.2712
49.9392
50.4977
48.9436
37.5798
36.9137
-81.5525
-26.7434
-146.581
-20.9539
-20.8478
-20.3328
-20.2624
-20.678
-20.7773
-21.9665
-20.6911
47.5948
50.5371
51.1037
49.6653
38.4378
38.6053
-89.2078
-26.6186
-21.6922
-20.9085
-20.7918
-20.2638
-20.2024
-20.6329
-20.7616
-21.9811
34.8818
48.3312
51.1338
51.6533
50.2461
39.3839
40.3355
-95.6845
-20.0386
-21.7632
-20.8672
-20.7371
-20.2029
-20.1506
-20.5978
-20.7501
27.4426
36.0286
49.2
51.6775
52.1337
50.7294
40.393
41.5812
-25.3322
-20.1234
-21.8423
-20.8326
-20.6851
-20.1503
-20.1122
-20.5806
-43.932
30.5159
37.2378
49.9144
52.1568
52.5579
51.1056
41.0439
-21.0007
-26.1679
-20.1863
-21.8989
-20.8068
-20.638
-20.1111
-20.0944
-30.2267
-51.6485
33.615
38.2307
50.494
52.5794
52.9116
51.3241
-24.8934
-20.7938
-27.0045
-20.2537
-21.9392
-20.7876
-20.601
-20.093
-94.1786
-30.7821
-60.1478
35.9191
39.1552
50.9687
52.9288
53.1122
-25.3726
-25.0738
-20.7951
-27.7901
-20.3343
-21.9699
-20.772
-20.583
-49.1848
-103.869
-30.4397
-67.986
37.8878
40.1111
51.3441
53.1258
-27.5306
-25.397
-25.2013
-20.8221
-28.5166
-20.4238
-21.9941
-20.7605
-45.9011
-48.673
-112.912
-29.8231
-75.1011
39.7897
41.0402
51.5588
-27.2703
-27.5556
-25.4124
-25.2601
-20.8572
-29.2195
-20.5134
-22.0099
-41.7584
-45.7628
-47.4894
-121.051
-29.0768
-82.1063
41.623
41.5982
-30.6084
-34.3263
-27.2774
-27.5848
-25.4131
-25.2812
-20.901
-29.8893
-20.5758
-38.4253
-41.9285
-45.758
-46.2407
-128.246
-28.1999
-89.7775
43.0603
-28.2533
-30.541
-34.3564
-27.2459
-27.59
-25.413
-25.2776
-20.9281
-30.3023
-33.9802
-38.5481
-42.0249
-45.8294
-44.9828
-135.027
-27.4062
-96.242
-34.7226
-31.0484
-27.9348
-30.6116
-34.2864
-27.1973
-27.5759
-25.4152
-25.2699
-20.9174
-33.8785
-38.6296
-42.0999
-45.9222
-43.7197
-142.136
-27.325
-35.0815
-35.8982
-31.8395
-30.8489
-27.8165
-30.5669
-34.2041
-27.1705
-27.5525
-25.422
-25.2769
-35.3348
-34.1604
-33.9973
-38.6947
-42.1562
-46.0006
-42.5471
-147.488
-35.2602
-35.9462
-31.7933
-30.5769
-27.7158
-30.4351
-34.095
-27.1637
-27.5291
-25.431
-35.4195
-34.2361
-34.1244
-38.728
-42.191
-46.0074
-41.803
-35.4074
-35.8392
-31.7591
-30.3362
-27.641
-30.247
-33.9771
-27.1679
-27.5193
-35.5371
-34.2439
-34.2212
-38.7394
-42.2023
-45.9403
-35.5645
-35.7231
-31.7308
-30.123
-27.5921
-30.0388
-33.8857
-27.1737
-35.6273
-34.2513
-34.278
-38.7302
-42.1882
-35.7383
-35.6343
-31.7031
-29.9254
-27.5415
-33.8508
-35.6917
-34.2583
-34.2853
-38.7076
-35.9004
-35.5762
-31.674
-29.7551
-27.4757
-35.7388
-34.2692
-34.2563
-35.5395
-31.6404
-29.6443
-35.7758
-34.2848
-35.521
-31.6172
-35.8006
-34.3015
-3.24482
-3.62946
-3.68139
-4.19489
-4.17256
-4.74152
-3.17423
-3.64061
-2.71782
-3.96059
-4.02744
-4.58034
-4.66939
-5.33269
-5.3341
-6.00107
-8.0607
-8.82769
-8.88905
-9.80388
-9.62545
-5.98106
-6.65786
-4.70992
-5.32851
-3.55871
-4.09082
-2.60515
-3.01619
-2.13393
-10.5553
-10.1888
-4.15172
-4.33845
-4.93434
-5.04158
-5.65365
-5.86941
-6.63311
-6.65888
-7.42368
-7.36495
-8.07558
-8.82494
-9.60925
-9.59871
-10.4382
-10.6187
-11.6202
-11.5138
-6.60183
-7.31697
-7.28409
-8.07353
-8.00496
-8.79326
-9.28034
-5.21347
-5.84415
-3.91153
-4.47316
-2.83428
-3.26508
-1.94091
-2.27173
-1.46028
-8.66244
-9.06319
-12.4825
-13.4032
-10.1231
-10.9125
-11.8778
-4.23579
-4.46981
-5.09257
-5.33341
-6.03158
-6.14106
-6.88324
-7.1808
-8.00866
-8.09133
-8.88657
-9.65823
-10.4989
-10.4548
-11.2934
-11.2477
-12.2146
-12.381
-13.0827
-13.4068
-14.5052
-14.014
-14.8875
-5.68541
-6.46936
-6.57643
-7.25402
-7.44669
-4.26673
-4.88728
-3.01025
-3.50481
-2.01441
-2.3606
-0.702583
-1.18427
-1.44835
-7.11604
-7.88707
-7.63492
-8.78438
-10.1509
-14.4628
-12.5221
-13.9127
-11.3819
-12.5493
-4.14834
-4.49676
-5.1613
-5.45521
-6.17891
-6.47784
-7.20813
-7.41075
-8.22288
-8.49572
-9.1776
-9.66031
-11.2026
-10.8254
-12.2267
-12.2409
-13.308
-13.233
-13.8692
-14.6553
-15.1185
-15.1779
-16.0918
-15.8049
-15.6455
-16.2069
-16.3347
-17.53
-4.90226
-5.72433
-5.3265
-6.04009
0.14244
-0.339701
-3.34891
-4.08114
-2.02707
-2.50677
-0.515395
-1.08486
-1.35516
1.03109
0.585595
-5.66292
-6.45287
-6.30601
-18.6669
-17.5986
-19.3007
-7.65767
-8.96587
-10.2595
-11.4375
-13.7213
-14.8544
-16.5249
-15.8651
-12.6901
-13.7764
-3.91244
-4.33703
-5.05596
-5.45703
-6.21565
-6.55366
-7.31441
-7.63677
-8.73354
-8.40609
-9.61456
-9.81091
-10.712
-11.2712
-12.8853
-12.3651
-13.8298
-13.9464
-14.63
-15.2061
-15.0749
-20.6277
-21.0387
-19.7845
-16.1793
-15.9488
-16.937
-16.8964
-17.2515
-18.0574
-17.6463
-19.7769
-19.0334
-29.4194
-30.1398
-29.7993
-32.4057
-31.2345
-30.7696
-30.9995
-30.6827
-3.67447
-4.25852
-3.71478
-4.4004
0.511041
-0.0591956
-2.11488
-2.68927
-0.252727
-0.940004
-1.26551
1.92338
1.54969
1.57449
1.06433
-3.94197
-4.8268
-7.65975
-4.48509
-6.00729
-29.1135
-27.5407
-23.5005
-22.7416
-21.3628
-16.9776
-18.3706
-19.1383
-20.5898
-7.87539
-8.97798
-8.82959
-10.3624
-11.6938
-12.998
-14.2991
-15.122
-16.4945
-29.82
-30.7838
-32.3365
-30.6971
-32.133
-33.7944
-32.643
-31.7985
-33.0614
-32.8836
-3.38875
-4.00681
-4.81741
-5.31554
-6.13901
-6.56685
-7.48072
-7.76987
-8.57005
-8.84796
-10.2388
-9.76966
-11.0921
-11.2494
-12.2629
-12.8358
-12.8749
-14.2125
-13.8033
-14.9748
-15.682
-15.6298
-16.653
-16.7323
-16.3685
-21.9854
-22.9038
-25.025
-24.1612
-21.6445
-20.731
-17.6748
-17.7541
-18.3588
-18.6265
-20.5976
-19.4067
-19.0836
-25.6173
-27.6022
-27.1671
-27.716
-27.097
-29.1851
-29.4282
-30.011
-32.0847
-31.1101
-31.5493
-31.2679
-31.6558
-31.7665
-32.3081
-31.999
-31.5433
-31.6647
-2.04422
-2.55296
-1.83828
-2.53674
1.01056
0.318473
0.148372
-0.660183
-0.965388
2.76445
2.45244
2.58172
2.15485
2.24439
1.69564
-1.69858
-2.3236
-3.63987
-3.96904
-5.50071
-6.39486
-2.93362
-24.7462
-27.1919
-26.1104
-29.9353
-28.6089
-24.0314
-25.218
-23.4033
-21.4396
-6.45719
-21.1824
-17.4005
-19.7703
-18.7328
-7.53518
-8.51214
-10.0568
-10.5477
-12.1121
-12.5614
-14.3448
-15.337
-17.0894
-30.0293
-30.9021
-29.8919
-32.8807
-32.5994
-34.1747
-32.3557
-32.2125
-31.4104
-31.9471
-33.1798
-32.8744
-2.7261
-3.37022
-2.13821
-2.1958
-4.32794
-5.03617
-6.00538
-6.48527
-7.49597
-8.02897
-9.11429
-9.23234
-10.525
-11.3718
-10.2523
-12.0108
-12.6119
-13.5633
-14.0839
-14.8985
-13.5542
-14.0919
-15.585
-15.622
-15.6475
-16.4636
-16.3392
-16.4361
-16.421
-17.1675
-17.2775
-17.9821
-18.3463
-22.5788
-23.5659
-24.6441
-24.0192
-22.2552
-21.5665
-19.3112
-19.6157
-21.3969
-20.4225
-20.3348
-25.4594
-25.1062
-25.5149
-28.2912
-27.1481
-29.0046
-28.7795
-30.4684
-27.5641
-30.0289
-30.2965
-31.7363
-31.3494
-31.0017
-32.2479
-30.3166
-31.4125
-0.44087
-0.246831
-0.650243
0.0312199
1.68608
0.928335
0.737427
0.293454
3.58193
3.34662
3.60346
3.24955
3.4547
2.96556
3.07704
2.41845
4.30714
4.16529
4.89119
4.91396
5.47882
5.33299
1.09205
-0.507528
-1.29095
-1.33149
-5.17732
-3.43537
-1.56184
-0.784442
-28.6129
-28.1903
-26.5781
-22.4302
-25.69
-24.2271
-4.88904
-6.63606
-8.40905
-22.7225
-18.5755
-21.1504
-19.9291
-10.1593
-11.2178
-12.7326
-13.2362
-14.8556
-15.405
-17.4063
-28.9481
-32.6796
-33.3096
-32.1795
-31.2035
-34.2026
-35.2162
-34.3833
-35.1969
-33.0254
-33.0105
-33.5884
-34.3276
-33.9423
-1.31306
-1.82457
-4.31585
-4.37019
-3.12961
-3.7297
-5.68974
-6.24693
-8.04838
-8.09408
-9.19141
-9.66652
-11.271
-11.2228
-12.1084
-12.6965
-13.6624
-13.9843
-14.9084
-14.7505
-15.5009
-16.1035
-17.0256
-16.6809
-17.3041
-16.9669
-17.68
-17.7156
-17.9428
-17.8735
-18.6604
-19.0003
-19.648
-20.0241
-24.1695
-22.9136
-23.7958
-23.2244
-22.2191
-20.6234
-21.6087
-21.0419
-21.4546
-26.3368
-24.9001
-27.4053
-25.8839
-27.899
-28.1193
-27.416
-31.0308
-28.865
-32.9139
-31.0339
5.53773
5.80784
0.941399
1.14667
2.44117
1.69156
1.82444
2.12986
2.42689
4.50793
4.21102
4.51545
4.12582
4.39841
3.88257
4.1301
3.45968
5.35289
5.21073
6.02122
6.03212
6.63109
6.44232
2.96734
2.54149
2.47372
0.691196
-3.08372
-1.51722
0.157954
1.40406
-24.7089
-26.7283
-27.9187
-3.15988
-5.18845
-7.05316
-9.10135
-10.9637
-22.5749
-24.4059
-18.8498
-21.6786
-12.9853
-14.1973
-16.3781
-16.7946
-19.0325
-28.7974
-31.0214
-30.583
-33.7242
-31.2363
-32.8266
-34.6298
-34.6357
-35.3565
-33.4141
-34.4601
-34.6985
-35.1054
-33.9273
-1.11869
-3.10742
-2.28299
-1.92894
-2.37095
-4.07336
-4.97227
-5.35395
-4.07587
-5.2144
-7.91443
-8.15676
-9.57361
-9.04763
-11.9363
-12.1808
-14.3231
-13.2934
-13.2729
-14.0645
-14.2802
-15.3041
-15.6128
-16.3188
-16.736
-17.7507
-18.3077
-18.2104
-17.9852
-18.5705
-18.6867
-18.2532
-19.5211
-19.4331
-19.4541
-19.9152
-21.3391
-24.7083
-24.2773
-23.2647
-22.0777
-21.503
-22.9176
-22.5903
-22.0539
-25.5422
-25.414
-27.3682
-26.5034
-27.6506
-27.7717
-27.8897
-27.5877
5.54505
5.92618
6.5879
6.92914
3.64337
3.02119
3.33458
4.38459
4.28746
5.67134
5.39406
5.84868
5.26871
5.54068
4.88579
4.99391
6.48903
6.59591
7.33914
7.2947
8.01571
7.68576
6.15923
4.92008
4.24311
3.41994
4.66172
7.65706
-1.36516
0.293758
2.43273
4.10754
-1.20884
-28.5359
-26.3966
-2.94828
-5.23773
-7.41777
-9.74426
-12.8134
-14.9177
-14.4234
-21.3057
-25.9427
-23.5965
-17.7756
-18.3488
-20.9543
-31.9584
-29.9296
-35.0137
-33.5534
-35.6173
-35.6591
-36.1349
-35.2611
-35.3758
-34.0506
-2.96249
-2.40548
-2.71759
-3.80296
-3.92629
-3.30251
-4.04301
-5.79602
-6.84216
-8.02772
-6.40433
-8.10639
-8.09447
-8.95464
-12.9776
-12.2171
-13.7266
-13.8929
-16.7814
-15.0206
-14.8984
-14.1752
-16.1558
-17.6033
-17.1343
-18.3588
-18.5479
-18.3341
-19.1678
-18.3624
-19.5031
-20.0038
-20.0583
-18.8748
-20.6516
-20.055
-20.5562
-21.7307
-22.7627
-25.7741
-25.0432
-21.8396
-21.9618
-22.8697
-22.4185
-25.999
-25.8163
-27.0561
-26.2317
-27.5527
-26.9759
-3.52531
-3.58872
5.33603
5.84434
6.47823
6.94148
7.6625
8.21387
5.93796
5.79371
6.73796
7.8155
8.42568
7.10325
6.8257
7.31708
6.60185
6.98281
8.08795
8.08764
8.9158
8.82681
9.66887
9.11159
9.63968
7.68628
6.2746
6.64093
10.3804
9.56078
1.03342
2.96811
5.68595
7.29139
1.36169
-0.648703
-2.78176
-32.4002
-28.6718
-5.73928
-8.77975
-12.1328
-14.3886
-18.318
-19.7525
-23.5045
-27.3038
-30.3525
-25.0649
-37.5797
-35.0794
-38.4074
-38.6897
-39.1002
-37.9407
-38.9881
-38.1467
-4.2768
-4.01065
-5.15776
-5.2263
-6.07636
-5.42245
-6.28775
-7.71785
-8.60534
-9.70971
-8.44384
-9.70341
-13.7141
-11.0139
-12.1954
-13.1308
-14.1191
-14.0938
-15.2814
-17.5631
-16.062
-17.4388
-15.9001
-18.7132
-18.0499
-20.3128
-18.7523
-19.6399
-18.951
-19.1264
-19.0139
-20.0071
-20.3987
-20.3517
-20.5183
-20.16
-21.3223
-21.1514
-21.8516
-22.1409
-23.3866
-22.3079
-24.3975
-23.4794
-23.6356
-25.2127
-24.9458
-25.5766
-25.0549
-3.97044
-4.14409
-4.96387
-4.97849
4.89013
5.49042
6.0736
6.64153
7.29463
7.96158
9.50714
8.80874
4.26575
4.88302
10.594
10.2095
8.37229
8.90464
8.89746
8.56607
9.14979
10.0811
9.89308
10.8797
10.6262
11.2717
10.4358
12.0975
12.5939
13.4448
12.5828
9.35842
10.3888
6.29397
4.29345
10.6735
9.10506
5.26737
2.74275
-1.2176
3.62739
-4.13745
-6.85354
-37.5274
-33.8216
-11.1545
-15.6529
-22.5008
-24.3489
-33.4974
-38.4282
-32.7574
-39.8835
-39.998
-41.5341
-40.9907
-42.2728
-40.9682
-5.83084
-6.27405
-6.94054
-7.10052
-8.14716
-7.57125
-9.01278
-9.86179
-10.8741
-11.9164
-10.886
-11.9216
-14.8396
-13.882
-13.1854
-14.1667
-17.7693
-14.9703
-15.3126
-16.9457
-16.4444
-18.2063
-17.5133
-17.8093
-17.8353
-19.3116
-18.8093
-19.9207
-20.107
-19.7047
-19.7788
-19.4936
-19.4576
-20.4437
-20.6129
-20.6806
-21.0172
-20.4463
-20.6884
-20.2854
-21.8183
-21.3308
-23.6018
-22.4458
-24.7863
-23.5306
-21.8657
-25.0678
-24.567
-4.25726
-4.48831
-5.19114
-5.41292
-6.18068
-6.39096
5.38464
6.06899
6.6235
7.36258
10.8175
9.00964
9.97462
8.13241
3.53165
4.12681
4.52403
5.22283
2.71938
3.31003
1.85936
2.4294
12.5973
11.2473
10.866
11.8511
11.1165
11.9133
12.3864
12.061
13.2498
12.4716
12.7778
12.085
11.9002
14.074
15.0243
15.2647
16.5466
15.9734
13.7485
13.0963
10.0531
8.13672
14.4294
13.1018
8.93242
6.54318
-0.30565
-5.19647
6.48939
2.62374
-8.56729
-13.9729
-45.3213
-42.7385
-23.1666
-31.6508
-40.7514
-46.1502
-39.6815
-46.3229
-44.269
-46.366
-46.0283
-7.35161
-8.14408
-10.2968
-10.3699
-9.39643
-9.40764
-11.1464
-12.1639
-13.0789
-13.9289
-13.4561
-14.1669
-16.0169
-15.0048
-14.702
-15.2926
-18.0261
-17.8717
-16.9299
-18.3735
-16.9273
-17.418
-18.6645
-18.9682
-18.221
-19.4513
-19.4346
-20.6747
-20.2647
-20.2632
-20.1897
-20.1333
-20.7579
-20.7205
-20.5489
-20.7323
-20.6257
-20.4035
-21.1898
-20.5759
-21.2682
-23.6345
-21.4562
-21.7796
-25.1551
-21.6884
-7.7612
-4.21459
-4.51046
-5.23258
-5.57767
-6.32753
-6.63713
-7.32826
-4.18904
-4.47612
-3.99137
-4.35354
-3.66315
-4.06708
0.998516
1.49156
0.141702
0.563942
-0.694134
-0.320623
-1.44576
-1.16782
-3.2592
-3.70252
-2.72584
-3.19216
-2.12871
-1.92304
-2.60504
5.69115
6.5452
7.17698
8.15214
10.0899
11.0173
8.97659
3.60219
4.2956
4.67237
5.4329
2.59028
3.24891
1.52249
2.12699
10.8838
13.5837
14.9975
13.722
14.221
13.8405
15.394
14.7647
15.8217
14.9597
13.1394
13.3417
11.8663
16.4357
16.8006
17.1468
18.4918
18.3632
20.0882
20.0897
17.7351
17.2864
14.4117
12.3519
18.9316
17.598
12.6623
9.81978
-10.4945
-1.3037
-8.94258
8.39983
2.91864
-20.4244
-24.7389
-47.7601
-50.151
-35.4761
-65.8309
-55.7546
-54.1333
-46.773
-8.80704
-9.57546
-11.7084
-11.897
-12.0022
-10.7206
-11.4641
-13.5264
-13.9995
-15.1061
-15.3915
-15.0097
-15.9809
-15.6792
-16.3762
-17.1851
-16.2455
-19.4199
-18.8716
-17.726
-18.083
-18.8906
-18.5403
-19.5043
-19.4517
-20.3931
-20.402
-20.5686
-20.466
-20.9442
-20.9303
-20.8476
-21.1571
-20.8845
-20.9683
-20.9371
-20.637
-21.0529
-20.6388
-20.4847
-24.7771
-20.7043
-9.10989
-7.58621
-8.39556
-5.12877
-5.53838
-6.25267
-6.64507
-7.31574
-4.9029
-5.30061
-4.61887
-5.06435
-4.20761
-4.68232
0.489399
1.00496
-0.482453
-0.0626425
-1.43925
-1.06312
-2.23667
-2.01512
-3.65998
-4.17291
-3.00691
-2.78997
-3.55186
5.86807
6.89348
7.45148
8.72752
9.54483
3.47542
4.25443
4.51946
5.42371
2.19325
2.91325
0.879242
1.54793
8.93548
11.2155
9.77274
17.2365
16.9883
16.4397
18.2465
17.4556
18.0388
15.9697
14.3262
14.0938
12.2693
20.2392
18.9337
19.0957
21.9473
21.8806
23.9627
24.0665
22.1801
22.3311
19.1448
17.1161
24.1595
22.6564
17.4525
13.8749
-13.1373
-21.6841
-2.2262
-12.0524
11.092
3.37589
-28.8265
-30.5545
-40.3028
-87.867
-80.1542
-10.0525
-10.692
-11.6292
-12.718
-13.4424
-13.2103
-13.2476
-12.6695
-16.0353
-16.6197
-17.202
-17.2174
-16.4503
-17.7426
-17.054
-17.8953
-18.2173
-18.5575
-18.2498
-18.0679
-19.746
-19.4147
-18.8835
-19.0875
-19.7517
-19.4565
-20.1532
-20.4305
-20.6381
-20.6595
-21.165
-20.9995
-21.0334
-21.1531
-21.3869
-21.3457
-21.3935
-21.3204
-19.9983
-21.58
-20.818
-30.1339
-9.04747
-9.89869
-7.73483
-8.62936
-5.97605
-6.44544
-7.29747
-5.77369
-6.28855
-5.31468
-5.8962
-4.68311
-5.26967
-0.257912
0.222513
-1.33404
-0.915122
-2.38993
-2.0194
-3.22039
-3.03736
-4.02616
-3.8531
-4.61291
5.7693
7.01022
7.6395
7.1876
3.00173
3.87622
4.05388
5.09657
1.49408
2.27749
0.00856274
0.793054
9.28464
7.83807
11.5987
10.0771
17.4563
17.4204
21.0629
20.3146
19.6513
18.7252
21.3887
21.0686
12.4124
16.8137
15.2354
14.1272
23.373
23.2515
25.8058
25.5257
27.0521
27.9145
26.5238
28.0087
24.0409
22.3433
28.7615
27.5358
23.6711
19.7558
21.5332
-18.7783
-28.5253
13.9885
-6.03634
-17.6505
-32.2178
-28.1783
-13.8481
-10.2192
-11.0415
-11.7351
-12.7223
-13.6016
-15.9018
-14.4747
-15.3587
-17.6909
-17.2425
-18.7452
-18.8114
-17.2592
-18.574
-19.0898
-19.2034
-19.3583
-18.9387
-19.2455
-19.4978
-19.3933
-19.3508
-20.22
-20.0213
-19.7595
-19.8377
-20.1571
-21.043
-20.5729
-20.7598
-21.0884
-21.1039
-21.2532
-21.2467
-21.0516
-21.1677
-21.8488
-21.1479
-9.10108
-9.82008
-7.20079
-7.74248
-8.64125
-6.60088
-7.24073
-5.9163
-6.57412
-5.18372
-5.85618
-1.20484
-0.726561
-2.43462
-1.98784
-3.54427
-3.24088
-4.371
-4.22943
-5.05857
7.10232
5.32583
6.20897
5.82481
2.3104
3.19544
4.16575
3.38036
0.710967
1.52735
-1.00039
-0.215687
9.06468
7.08099
5.74324
11.3874
9.63668
17.9109
20.6844
19.5883
20.4539
24.9445
23.5885
24.7825
22.6669
22.9423
14.951
12.4472
17.6583
16.3055
19.251
27.6079
27.1382
30.855
33.3042
30.3959
31.1671
31.7707
32.4661
33.4391
28.7621
29.7271
29.8659
25.4842
27.0544
25.7202
21.2181
-21.499
-39.5079
-36.0765
-15.8453
-10.2842
-14.3957
-14.8913
-11.31
-11.5981
-12.4494
-12.9869
-13.6787
-14.3195
-16.1863
-15.9634
-17.5494
-17.2568
-19.756
-19.7997
-18.7279
-18.9669
-20.1951
-20.0094
-19.3674
-19.3429
-20.006
-20.0897
-20.1311
-20.6595
-20.5194
-20.3398
-20.5576
-20.9215
-20.7986
-21.0972
-21.0329
-20.9977
-20.9738
-21.0169
-21.0554
-10.2853
-8.01158
-8.60417
-9.36531
-9.66941