/*--------------------------------*- C++ -*----------------------------------*\
  =========                 |
  \\      /  F ield         | OpenFOAM: The Open Source CFD Toolbox
   \\    /   O peration     | Website:  https://openfoam.org
    \\  /    A nd           | Version:  8
     \\/     M anipulation  |
\*---------------------------------------------------------------------------*/
FoamFile
{
    version     2.0;
    format      ascii;
    class       volVectorField;
    location    "5000";
    object      U;
}
// * * * * * * * * * * * * * * * * * * * * * * * * * * * * * * * * * * * * * //

dimensions      [0 1 -1 0 0 0 0];

internalField   nonuniform List<vector> 
4109
(
(10.1197 0.000522763 0)
(10.1223 0.00055257 3.86741e-21)
(10.124 0.0025045 0)
(10.1218 -0.000216878 -8.33301e-21)
(10.1241 0.0015062 4.0082e-22)
(10.1269 0.00237167 6.67444e-23)
(10.1278 0.00251367 -2.46128e-22)
(10.1334 0.00401669 0)
(10.1288 0.00239025 0)
(10.123 0.000387708 -2.86671e-21)
(10.125 0.00129226 3.48516e-21)
(10.1338 0.00314501 1.53539e-21)
(10.1363 0.00797801 2.24822e-21)
(10.1368 0.00429669 -1.09136e-22)
(10.1346 0.0033129 2.37419e-21)
(10.13 0.0022234 -8.93768e-22)
(10.1243 0.000617697 5.51101e-22)
(10.1267 0.0016039 6.44858e-23)
(10.1356 0.00323625 0)
(10.1404 0.0036983 -3.23245e-21)
(10.159 0.00816453 1.84916e-21)
(10.1427 0.00842475 -5.07646e-21)
(10.1466 0.00601284 -5.73177e-22)
(10.1312 0.00229309 -2.2376e-21)
(10.1285 0.00175625 9.12071e-21)
(10.1256 0.00084356 3.08578e-21)
(10.1329 -0.0021195 0)
(10.1362 -0.00228169 9.06986e-22)
(10.1404 -0.00217157 -6.57981e-23)
(10.136 0.00325999 0)
(10.1419 0.0032377 0)
(10.1465 0.00464729 3.92058e-21)
(10.2209 -2.16536e-05 -1.01538e-21)
(10.1507 0.00705213 -7.10748e-21)
(10.1489 0.00602121 0)
(10.132 0.00233949 -1.60448e-22)
(10.1279 0.00153827 -9.06056e-21)
(10.1266 0.000754416 -5.02592e-21)
(10.1328 -0.00216774 -1.45008e-21)
(10.1249 -0.00161562 0)
(10.1421 -0.00303786 -1.3755e-22)
(10.1392 -0.00333378 4.96482e-22)
(10.1418 -0.00893186 -1.48139e-22)
(10.1365 0.00334349 -2.26575e-21)
(10.1421 0.00323763 0)
(9.48072 0.0260898 7.08015e-22)
(10.135 -0.000371679 3.81258e-22)
(10.1489 0.00466765 -1.40902e-22)
(10.1496 0.00403261 6.76777e-22)
(10.2167 -0.00105466 4.63005e-21)
(10.1535 0.00534031 4.26149e-21)
(10.1308 0.00203014 -1.32272e-22)
(10.1291 0.00184969 -8.79566e-21)
(10.1281 0.00102586 1.97861e-21)
(10.1329 -0.00250153 -9.47521e-22)
(10.1266 -0.00186353 0)
(10.119 -0.00035609 0)
(10.1416 -0.00527547 1.17285e-22)
(10.143 -0.0041729 1.57799e-22)
(10.1389 -0.003476 0)
(10.2401 -0.00276693 -1.44643e-22)
(8.88598 0.0142785 0)
(10.1362 0.00330485 -7.73586e-21)
(10.1427 0.00323993 0)
(10.1487 0.00439758 6.0575e-22)
(10.2461 -0.000862608 -3.86864e-22)
(9.74635 0.0280898 1.58275e-20)
(10.15 0.00375529 0)
(10.1508 0.00631878 -9.57558e-22)
(10.2301 -0.000417407 -5.84062e-22)
(10.1298 0.00127563 2.64876e-21)
(10.1309 0.00226662 5.86885e-21)
(10.1355 0.00387918 0)
(10.1318 0.00141119 1.19592e-20)
(10.1331 0.00226668 -1.78491e-20)
(10.1339 -0.00284585 9.55645e-22)
(10.1284 -0.00195329 0)
(10.1266 -0.00176286 0)
(10.1205 -0.000465294 0)
(10.2207 0.00675851 1.69724e-22)
(10.1468 -0.00464658 8.11644e-22)
(10.1416 -0.00486251 -7.41454e-22)
(10.1451 -0.0036086 8.86869e-23)
(10.1395 -0.00389672 0)
(10.3543 0.0186103 1.20947e-21)
(10.258 3.60317e-06 0)
(9.37364 -0.0429399 0)
(9.21595 0.0310555 -3.08721e-20)
(8.84226 0.0202382 -1.05287e-21)
(10.1348 0.00273314 3.02204e-21)
(10.1371 0.00329097 7.739e-21)
(10.1432 0.00333669 0)
(10.1492 0.0044966 -3.17667e-22)
(10.1506 0.00351021 -1.97903e-22)
(10.2875 -0.00495933 0)
(9.9927 0.0122723 0)
(10.1483 0.00594455 0)
(10.2206 0.000546934 3.096e-22)
(10.1371 0.00394378 6.29578e-22)
(10.1342 0.00322047 -1.17933e-20)
(10.1318 0.00248835 1.34307e-20)
(10.1365 0.00384091 8.47214e-21)
(10.1383 0.00452158 5.397e-21)
(10.1346 0.00274013 6.28367e-21)
(10.1341 0.00122859 2.4538e-21)
(10.1347 -0.00333013 3.99595e-22)
(10.1305 -0.00263548 3.53619e-22)
(10.1263 -0.0015415 0)
(10.1212 -0.000621891 2.85521e-21)
(10.2091 0.00182124 1.57223e-22)
(10.3295 0.00916098 0)
(10.1451 -0.00537199 -3.22444e-22)
(10.1455 -0.00428757 -3.18747e-23)
(10.1454 -0.00403151 0)
(10.1399 -0.00420802 0)
(9.01875 -0.038027 -1.43718e-20)
(10.1706 -0.0132144 -1.07927e-21)
(9.90987 -0.0362113 1.72621e-20)
(9.5675 0.0395094 -7.21472e-21)
(9.04842 0.0114372 1.10081e-20)
(8.75677 -0.00320219 8.6243e-21)
(10.2989 0.0020585 1.37785e-22)
(10.1362 0.00330872 -1.38113e-20)
(10.1394 0.00390999 -2.3895e-21)
(10.1441 0.00368191 -7.63996e-22)
(10.1495 0.00479061 0)
(10.1514 0.00386902 6.31324e-22)
(10.1472 0.006112 -2.01483e-21)
(10.0767 0.00439751 3.38726e-21)
(10.3091 -0.00162303 0)
(10.2078 0.000909434 2.35582e-22)
(10.1403 0.00521579 6.98482e-21)
(10.1373 0.00405887 -4.38708e-21)
(10.1387 0.00472598 -8.28663e-21)
(10.1409 0.00582622 5.13277e-22)
(10.1372 0.00155826 0)
(10.1375 0.00379602 -4.98208e-21)
(10.1355 -0.00386386 -7.81568e-22)
(10.1307 -0.00281503 0)
(10.1268 -0.00171308 1.07629e-21)
(10.1225 -0.000758115 -2.85487e-21)
(10.2107 -0.00126709 -2.45349e-23)
(10.3261 -0.00306424 0)
(10.1429 -0.00663496 0)
(10.1466 -0.00444013 -3.04211e-22)
(10.1457 -0.00420876 1.5192e-22)
(10.1404 -0.00469773 0)
(9.13903 -0.0346394 -8.23358e-21)
(9.85909 -0.0391258 5.30683e-22)
(9.08636 0.00957674 0)
(9.64725 0.0186157 -3.79711e-21)
(8.7604 0.0225226 0)
(10.2683 -0.00130517 -1.28653e-22)
(10.1399 0.0043783 1.1011e-20)
(10.1395 0.00391178 2.38932e-21)
(10.145 0.00417887 7.26404e-22)
(10.1502 0.0056196 2.35161e-21)
(10.1514 0.00440406 1.10481e-21)
(10.1467 0.00696206 1.23384e-21)
(10.2021 0.00307853 -3.9028e-23)
(10.1213 0.00211338 -3.43443e-24)
(10.3213 -0.00265843 -2.35407e-22)
(10.1441 0.00619245 1.96111e-21)
(10.1401 0.00451703 0)
(10.1416 0.00626779 -3.1868e-22)
(10.1449 0.00725664 -1.69214e-21)
(10.1426 0.00639815 -2.10611e-22)
(10.141 0.00538468 0)
(10.1408 0.00177886 0)
(10.1365 -0.00457277 2.99681e-22)
(10.132 -0.00341569 1.16575e-22)
(10.1281 -0.00208742 -2.32275e-21)
(10.1232 -0.000647534 -4.80824e-22)
(10.2068 -0.00458621 -2.0697e-23)
(10.3266 -0.00414185 0)
(10.1409 -0.00767865 6.23104e-22)
(10.1483 -0.00455694 -1.49005e-22)
(10.1457 -0.00489243 -6.0426e-22)
(10.1414 -0.00561447 -3.68792e-22)
(9.77439 -0.0296487 -5.53914e-22)
(8.88281 -0.012851 0)
(9.70548 0.0164596 3.92353e-24)
(9.09609 0.00600094 4.71378e-22)
(8.76179 0.0207009 1.06992e-22)
(10.286 0.00324537 1.78136e-22)
(10.1456 0.00443466 -2.53078e-23)
(10.1462 0.00485341 2.52994e-23)
(10.1519 0.00621319 -1.21982e-21)
(10.1479 0.00757789 -1.98736e-21)
(10.1549 0.00409768 -8.80014e-22)
(10.1906 0.0062308 1.05962e-21)
(10.1074 0.00497595 -2.26911e-22)
(10.3172 0.000767727 1.3645e-22)
(10.1469 0.00535466 -9.45702e-22)
(10.1477 0.00636059 4.95596e-22)
(10.146 0.00828843 -4.96406e-22)
(10.1487 0.00754568 -6.81434e-22)
(10.1477 0.00931889 4.92438e-22)
(10.146 0.00770115 2.466e-22)
(10.1421 0.00501404 1.86181e-21)
(10.1449 0.000841325 0)
(10.1378 -0.00529442 -6.38668e-22)
(10.1332 -0.0038828 3.09547e-22)
(10.1295 -0.00251087 1.99188e-21)
(10.1248 -0.000892659 3.76431e-22)
(10.1929 -0.00629146 -3.49757e-22)
(10.3171 -0.00338731 -5.8943e-22)
(10.1398 -0.00786676 3.99262e-22)
(10.1495 -0.00534226 2.6274e-23)
(10.1463 -0.00650208 8.8234e-22)
(10.1428 -0.00686724 0)
(9.76131 -0.019169 -1.31334e-21)
(8.86914 -0.00639241 6.3481e-22)
(9.0755 -0.00157378 0)
(9.68093 0.0117737 5.65074e-23)
(8.75444 0.0197011 -7.38322e-22)
(10.313 0.0116543 1.97991e-22)
(10.1528 0.00531942 0)
(10.1531 0.00566176 -9.28481e-22)
(10.1565 0.00419773 -3.0379e-21)
(10.1737 0.0130421 2.20958e-21)
(10.1067 0.00387598 1.35021e-24)
(10.3164 0.00248367 -4.72166e-22)
(10.1533 0.00703901 1.1093e-21)
(10.1536 0.00847208 2.06875e-21)
(10.1501 0.00887612 2.03908e-21)
(10.1543 0.0101948 -1.41302e-21)
(10.1519 0.0101456 -1.038e-21)
(10.1498 0.0104184 0)
(10.1473 0.00743629 -2.09526e-21)
(10.146 0.0057431 -2.13923e-21)
(10.1493 0.000841475 0)
(10.1392 -0.00592014 -2.92833e-21)
(10.1346 -0.00422871 7.66809e-21)
(10.1312 -0.00287821 3.40628e-21)
(10.1263 -0.000971546 -6.42314e-22)
(10.1769 -0.00777168 -2.65396e-22)
(10.3019 -0.00405785 1.57661e-22)
(10.1509 -0.00736864 -7.10257e-22)
(10.1405 -0.00801046 9.96333e-22)
(10.1407 -0.00630735 0)
(10.1483 -0.00888638 0)
(10.1446 -0.00788409 0)
(9.82313 -0.0166471 2.9012e-22)
(8.87943 -0.00898769 4.84189e-22)
(9.68283 0.00518878 5.28967e-23)
(9.07973 -0.00895978 6.59599e-23)
(8.76071 0.0212309 -6.46379e-23)
(10.3286 0.0174053 -4.88398e-22)
(10.1584 0.00307114 0)
(10.1566 0.00472557 4.89818e-22)
(10.1652 0.0164941 7.4225e-22)
(10.1062 0.00380808 -1.11411e-21)
(10.3181 0.00804494 5.77846e-22)
(10.1571 0.00684413 -3.36301e-22)
(10.1584 0.00752535 -2.72111e-22)
(10.1553 0.0119655 -3.94104e-22)
(10.1597 0.0100889 0)
(10.1567 0.013983 0)
(10.1542 0.011377 -3.20139e-22)
(10.1523 0.0113578 2.70783e-21)
(10.1505 0.00816174 -1.11831e-20)
(10.1503 0.00585897 0)
(10.1538 0.000960315 0)
(10.1372 -0.00502835 4.12946e-21)
(10.1344 -0.00404984 -5.60461e-21)
(10.1283 -0.00110948 2.38734e-21)
(10.1395 -0.00566527 4.13221e-21)
(10.1526 -0.0104399 1.86572e-21)
(10.279 -0.00504247 -3.29972e-21)
(10.1513 -0.0092957 -9.82374e-23)
(10.1429 -0.00689434 0)
(10.1463 -0.00853906 0)
(10.1507 -0.0100385 -5.79181e-22)
(8.88509 -0.00589003 2.94086e-22)
(9.86049 -0.0142495 5.13676e-22)
(9.08962 -0.0249315 8.08474e-22)
(9.68726 -0.00847253 -7.79831e-22)
(8.76627 0.018504 0)
(10.3381 0.0272506 1.04948e-21)
(10.0158 -0.0174739 1.28534e-19)
(10.1675 0.0158499 0)
(10.1636 0.00995771 -2.33521e-22)
(10.1129 0.00559575 -1.49821e-20)
(10.3296 0.00657079 -4.25983e-21)
(10.1529 0.0129957 1.46736e-21)
(10.1558 0.0114477 -4.5449e-22)
(10.1611 0.0120407 2.86402e-21)
(10.154 0.0166643 4.50585e-22)
(10.1632 0.0144969 -8.25387e-23)
(10.1585 0.0158266 -1.11089e-22)
(10.1568 0.0125622 0)
(10.1552 0.0122715 -6.05936e-21)
(10.1543 0.00894588 2.2611e-20)
(10.1549 0.00632962 0)
(10.1556 0.00431437 6.99994e-21)
(10.1571 -0.000646597 0)
(10.129 -0.00061304 0)
(10.1351 -0.00351639 2.41816e-21)
(10.132 -0.00246561 -3.68231e-21)
(10.1405 -0.0055524 2.07508e-22)
(10.1444 -0.00710585 1.60829e-21)
(10.1387 -0.0145189 0)
(10.2596 -0.00887768 1.4275e-21)
(10.1558 -0.0112568 1.26085e-21)
(10.148 -0.00901071 6.05352e-22)
(10.1532 -0.0103955 0)
(9.8888 -0.00619935 1.21818e-21)
(8.8676 -0.00014235 -6.96281e-22)
(9.10582 -0.029818 4.08592e-20)
(9.74103 -0.0150089 -2.82159e-20)
(8.78121 0.0160057 3.20701e-20)
(10.3336 0.0299782 -1.0422e-21)
(10.0116 -0.00270878 -2.1286e-19)
(10.0142 -0.0198725 5.55613e-20)
(10.0108 -0.0138407 -6.24671e-20)
(10.022 -0.0211792 -8.27598e-20)
(10.0172 -0.00651309 1.88725e-19)
(10.028 -0.0266655 7.33501e-20)
(9.97291 0.0171388 2.77615e-20)
(10.3405 -0.0152751 1.95192e-20)
(10.2798 -0.0294901 -1.84729e-20)
(10.1918 -0.000133312 -1.49639e-21)
(10.2033 0.00179231 -5.97067e-21)
(10.158 0.0114152 -2.87093e-22)
(10.1574 0.0177846 0)
(10.1617 0.0209153 -1.67267e-21)
(10.1652 0.0160222 0)
(10.161 0.0176577 0)
(10.1612 0.00788456 4.36679e-20)
(10.1599 0.0137815 1.10285e-21)
(10.1587 0.0130582 1.88875e-20)
(10.1589 0.009662 -1.90292e-20)
(10.1589 0.00369267 -6.77264e-21)
(10.1583 -0.00140974 0)
(10.1603 0.000790143 0)
(10.1565 -0.0025531 1.26112e-20)
(10.1319 -0.00168152 -5.39571e-22)
(10.1355 -0.00320592 -7.5751e-21)
(10.1426 -0.00594715 -4.84107e-21)
(10.1462 -0.00745054 -5.20799e-21)
(10.1497 -0.00935209 -7.58128e-22)
(10.1389 -0.0198011 0)
(10.2597 -0.0109621 -2.95177e-21)
(10.1589 -0.0122238 -1.13309e-21)
(10.1552 -0.0102461 -1.6572e-23)
(9.89174 0.000596761 7.65516e-21)
(8.76561 0.00648118 5.74295e-22)
(8.97732 0.0202295 2.60203e-20)
(10.3268 0.0113336 9.36872e-22)
(10.0008 -0.00197571 -5.61706e-20)
(10.0042 -0.00162367 5.61951e-20)
(10.007 -0.0090334 0)
(10.0193 -0.0246151 -2.27445e-20)
(10.0112 -0.0246203 8.55607e-20)
(10.0069 -0.0176147 7.22548e-20)
(10.1498 -0.00528814 0)
(10.1551 -0.0109783 7.04382e-21)
(10.1567 -0.0250615 5.64283e-21)
(10.0258 -0.007823 -2.87996e-21)
(10.0314 -0.0193403 -1.90862e-20)
(10.0242 -0.0120496 4.80214e-20)
(10.0341 -0.0269415 -6.53443e-21)
(10.0258 -0.0304439 2.77488e-20)
(9.51766 0.055315 -6.07592e-20)
(10.3523 -0.0333585 -4.4376e-21)
(10.3281 0.00757271 2.7114e-20)
(10.273 -0.00107834 -9.86909e-21)
(10.1691 0.0133982 -1.68367e-22)
(10.1652 0.007249 1.7282e-21)
(10.1565 0.0225186 -1.31155e-20)
(10.1693 0.0209599 0)
(10.1676 0.0183082 0)
(10.164 0.0197422 -1.08932e-21)
(10.1639 0.010204 0)
(10.1635 0.0150013 0)
(10.1629 0.013579 -6.45387e-21)
(10.1657 0.00202994 0)
(10.1645 0.00461483 -3.16475e-20)
(10.1607 -0.0049849 -7.61849e-20)
(10.1647 -0.00158 5.15269e-20)
(10.1657 -0.0165271 0)
(10.1735 -0.0339536 1.59024e-20)
(10.1346 -0.00158088 8.01466e-21)
(10.1383 -0.00393001 -4.11943e-22)
(10.1454 -0.00664644 -2.01291e-20)
(10.148 -0.00788292 1.13683e-20)
(10.1514 -0.00973712 2.14281e-22)
(10.1569 -0.0104419 -1.64041e-22)
(10.1442 -0.0206537 8.4871e-22)
(10.2491 -0.0144604 1.06542e-21)
(10.161 -0.0117182 -4.75855e-22)
(9.93293 -0.0197107 -1.17741e-20)
(8.57839 0.00817532 1.82042e-20)
(10.0004 -0.00286475 -1.16408e-19)
(10.003 -0.00950449 4.95151e-20)
(10.0163 -0.0308069 -2.80886e-20)
(10.0092 -0.0286035 1.95098e-21)
(10.0052 -0.0203265 -1.37935e-19)
(10.1443 -0.0173743 -1.27003e-20)
(10.1378 -0.00784069 1.0803e-20)
(10.1448 -0.0341504 0)
(10.1839 -0.0562418 -3.01353e-20)
(10.1624 -0.0451706 -1.6582e-20)
(10.0401 -0.0164018 1.68654e-22)
(10.0392 -0.010979 -2.70459e-20)
(10.0414 -0.0308604 -1.92425e-22)
(10.0335 -0.035382 -6.31513e-21)
(10.0237 -0.0376697 -2.91918e-20)
(8.65196 0.0442601 -4.47958e-20)
(9.83372 0.103505 1.29626e-20)
(10.364 0.0415961 -1.3075e-20)
(10.3117 0.0226601 1.09254e-21)
(10.1779 0.0168039 4.66574e-21)
(10.1679 0.0100116 2.81203e-21)
(10.1714 0.00907202 9.26676e-21)
(10.1591 0.0225827 -2.52088e-21)
(10.1699 0.0231578 2.77712e-21)
(10.1702 0.0206147 0)
(10.1676 0.022337 -8.99194e-21)
(10.1674 0.0134646 -1.03646e-20)
(10.1678 0.0161229 0)
(10.1736 0.00194759 -2.23572e-20)
(10.1721 0.00573222 -1.11699e-20)
(10.1733 -0.0032938 4.92443e-20)
(10.1709 -0.00945529 -1.83689e-20)
(10.1811 -0.0231483 -1.1286e-20)
(10.1951 -0.0411619 4.74191e-20)
(10.1378 -0.00203354 -4.83828e-21)
(10.1416 -0.00474665 8.98107e-21)
(10.1632 -0.0128248 2.24155e-21)
(10.1506 -0.00863638 6.63505e-21)
(10.1495 -0.00850235 0)
(10.153 -0.0102981 1.79274e-21)
(10.1584 -0.0107049 9.99281e-23)
(10.1539 -0.01033 0)
(10.1536 -0.0178201 -1.8411e-21)
(10.1495 -0.0180197 -1.56251e-21)
(10.2878 -0.00593395 1.36072e-21)
(10.0372 -0.0552296 3.23388e-20)
(10.0008 0.00226679 -1.46975e-20)
(10.0003 -0.00386019 0)
(10.0021 -0.0120301 3.14742e-20)
(10.0142 -0.0363874 -7.01289e-21)
(10.0068 -0.0331528 0)
(10.0036 -0.023358 1.04856e-20)
(10.2207 -0.0691139 -5.38031e-20)
(10.1206 -0.0105268 -6.97238e-23)
(10.1008 -0.0129385 0)
(10.1302 -0.0240937 -5.05296e-21)
(10.1345 -0.0432647 -1.21397e-21)
(10.0575 -0.0100883 0)
(10.0784 -0.00945994 0)
(10.1675 -0.0701449 1.45896e-20)
(10.148 -0.0552181 -1.45549e-22)
(10.051 -0.026074 1.04387e-19)
(10.0432 -0.0388961 4.98911e-20)
(10.0332 -0.0448613 1.2746e-20)
(10.0211 -0.0446397 0)
(8.45733 -0.00198903 3.57139e-20)
(9.41739 0.108925 0)
(10.2835 0.0579719 1.03651e-21)
(10.3183 0.0251705 -1.20718e-21)
(10.1958 0.0180901 6.24341e-21)
(10.1722 0.0124914 1.19651e-20)
(10.1769 0.0102264 0)
(10.1604 0.0240892 3.83956e-21)
(10.1718 0.0254167 -8.11488e-22)
(10.1732 0.0234578 -3.50514e-21)
(10.1721 0.0251149 -1.67777e-21)
(10.1729 0.0168238 2.02106e-22)
(10.1838 0.00153625 -1.29322e-20)
(10.1806 0.00643598 1.45057e-20)
(10.1855 -0.00515598 1.34348e-20)
(10.1849 -0.0134559 -1.21909e-20)
(10.201 -0.0269597 -4.74782e-20)
(10.228 -0.0455908 3.37783e-24)
(10.1415 -0.00257177 -2.68792e-21)
(10.151 -0.00716591 -2.96351e-20)
(10.1463 -0.0059824 1.8601e-20)
(10.1726 -0.0182955 -2.11372e-21)
(10.1648 -0.0129037 -6.40983e-22)
(10.1547 -0.0110809 -1.70082e-21)
(10.1566 -0.0118229 0)
(10.1598 -0.0112343 1.31045e-21)
(10.1569 -0.0120144 8.54273e-21)
(10.1589 -0.0128468 0)
(9.66491 -0.0878143 -8.22352e-20)
(9.38434 -0.0905973 1.47442e-20)
(10.1402 -0.00816971 0)
(10.3265 0.00276388 5.3968e-21)
(10.0004 0.00279671 1.43858e-19)
(10.0022 0.00844747 -1.36759e-19)
(10.0046 0.00104041 0)
(10.0003 -0.00456909 -1.95934e-20)
(10.0014 -0.0137755 7.19e-20)
(10.0115 -0.0425227 5.93412e-21)
(10.0037 -0.0352032 0)
(10.0013 -0.0245214 -1.65579e-19)
(10.2051 -0.0913324 5.37773e-20)
(10.2663 -0.0674155 2.26333e-20)
(10.1189 -0.0326661 -3.40355e-21)
(10.1015 -0.0267186 0)
(10.1186 -0.0514683 4.85242e-21)
(10.0819 -0.0232817 0)
(10.065 -0.0273032 -8.72391e-20)
(10.1471 -0.0803742 1.53719e-20)
(10.1315 -0.0602343 3.865e-21)
(10.0554 -0.0402268 -2.00907e-20)
(10.0446 -0.0518537 -1.17272e-20)
(10.0301 -0.0533044 4.0448e-20)
(10.0165 -0.0520197 -3.83489e-20)
(8.16083 -0.023191 5.07006e-21)
(9.11396 0.0768994 3.32714e-21)
(9.05087 -0.0677831 6.79698e-21)
(10.2356 0.0382476 -2.31551e-21)
(10.3408 0.0272764 2.11489e-21)
(10.2081 0.0225439 -2.37999e-21)
(10.1786 0.0164838 0)
(10.1847 0.0145592 -1.93616e-20)
(10.1621 0.027322 -4.53555e-21)
(10.1735 0.0282428 7.57417e-21)
(10.1779 0.0266285 1.49497e-21)
(10.1772 0.0273323 1.10438e-20)
(10.1908 0.0106025 1.93552e-20)
(10.1962 0.00464181 0)
(10.2005 -0.00370921 0)
(10.2024 -0.01433 0)
(10.2291 -0.0241511 0)
(10.2668 -0.039841 -4.67422e-20)
(10.3058 -0.0634184 -7.31299e-20)
(10.1458 -0.00304187 2.68778e-21)
(10.1519 -0.0055123 8.28437e-21)
(10.1666 -0.0137481 2.31746e-21)
(10.1658 -0.0139339 1.7622e-22)
(10.1612 -0.0122647 -1.57413e-21)
(10.1627 -0.0135147 -1.83461e-21)
(10.165 -0.0148983 0)
(10.1587 -0.0117077 0)
(10.1617 -0.0137911 0)
(10.1705 -0.00446701 0)
(10.3663 -0.013749 3.98695e-20)
(10.2982 -0.02951 -3.01833e-20)
(10.0006 0.00484526 3.58962e-20)
(10.0023 0.0108662 -2.8e-20)
(10.0049 0.014027 -6.96659e-20)
(10.0137 0.00793535 0)
(10.0073 0.0109468 0)
(9.99992 -0.0048981 5.48288e-21)
(10.0009 -0.0153968 4.30629e-20)
(10.0078 -0.0459494 -1.27238e-21)
(10.0001 -0.0396198 -2.96587e-20)
(9.9994 -0.0301188 2.68297e-19)
(10.1824 -0.107199 1.46131e-22)
(10.2518 -0.0954682 4.55552e-20)
(10.3319 -0.104494 -7.17791e-20)
(10.0714 -0.0447522 -6.5443e-20)
(10.1023 -0.0508449 2.07673e-20)
(10.0892 -0.0406296 2.99508e-20)
(10.125 -0.0862512 0)
(10.1146 -0.0631382 -1.98582e-21)
(10.0586 -0.0588241 -1.61875e-20)
(10.0413 -0.0623408 -4.45045e-20)
(10.023 -0.0623646 2.25338e-20)
(10.0111 -0.0568604 -1.42385e-20)
(10.3285 -0.0677804 0)
(8.03801 -0.0144879 -4.76634e-21)
(8.96722 0.0593654 2.26333e-21)
(8.85646 -0.0372894 -5.17246e-21)
(10.2084 0.0304273 7.19039e-22)
(10.3521 0.0290934 -7.0308e-22)
(10.2155 0.0307931 0)
(10.1841 0.028476 0)
(10.1921 0.0277762 1.98797e-20)
(10.1773 0.0321429 0)
(10.1638 0.0352908 -7.59915e-23)
(10.1836 0.0299118 -1.45139e-21)
(10.2009 0.0245175 -1.98682e-20)
(10.21 0.0182425 0)
(10.2187 0.00815879 0)
(10.2256 -0.00593111 0)
(10.2611 -0.0151207 0)
(10.2944 -0.0339247 3.65615e-20)
(10.3373 -0.0485363 2.13598e-19)
(10.3657 -0.0675913 1.71747e-20)
(10.1492 -0.00212413 0)
(10.1556 -0.00580732 -8.3863e-21)
(10.1675 -0.0131698 0)
(10.1667 -0.0146745 5.91437e-21)
(10.1676 -0.0170016 -1.54787e-20)
(10.1681 -0.0192194 4.73024e-21)
(10.1679 -0.016662 -1.61775e-20)
(10.1626 -0.0123117 2.60833e-21)
(10.1643 -0.0135412 0)
(10.167 -0.0177088 2.38844e-20)
(10.1792 -0.0113272 0)
(10.2687 0.0176694 1.65148e-20)
(10.0006 0.00603112 -6.63386e-20)
(10.024 0.0079216 2.01458e-20)
(10.0034 0.0164452 0)
(10.0063 0.020432 -1.20021e-21)
(10.0114 0.0147303 5.67421e-20)
(9.99982 -0.00454648 0)
(9.99905 -0.0147251 -4.793e-20)
(10.0024 -0.0501735 3.2977e-20)
(9.99526 -0.0388499 0)
(9.99592 -0.0297264 0)
(9.99821 -0.0211415 -1.8187e-21)
(10.1556 -0.117115 -2.44256e-21)
(10.3758 -0.143288 1.00426e-19)
(10.2208 -0.121583 -2.29081e-21)
(10.2941 -0.132216 -7.35978e-20)
(10.105 -0.0877152 5.44038e-20)
(10.0758 -0.0604833 0)
(10.0949 -0.0660405 -2.4564e-20)
(10.0558 -0.0714821 0)
(10.0311 -0.0740531 4.9932e-21)
(10.0152 -0.0694366 4.30343e-20)
(10.0038 -0.0620342 -1.71699e-20)
(10.2778 -0.0441468 0)
(7.97171 -0.0143047 2.82979e-21)
(8.87343 0.0583277 -3.67887e-21)
(8.77245 -0.0338227 -7.70139e-22)
(10.1706 0.0247907 9.30088e-22)
(10.3546 0.0321512 1.28263e-21)
(10.2175 0.0455115 6.02488e-22)
(10.2025 0.0342643 2.16583e-20)
(10.192 0.0326869 -1.05236e-20)
(10.1839 0.0375314 1.26282e-21)
(10.1675 0.0486898 -1.35821e-21)
(10.2142 0.0323737 -2.86113e-20)
(10.2268 0.0271796 1.69918e-20)
(10.2517 0.00461055 0)
(10.2397 0.0185535 0)
(10.2846 -0.00717783 -1.30676e-20)
(10.3523 -0.00679647 7.77392e-20)
(10.3228 -0.0104957 0)
(10.3868 -0.0273191 -2.16482e-19)
(10.4095 -0.0981641 -1.38826e-19)
(10.1534 -0.00199117 4.60086e-21)
(10.1592 -0.00539067 -2.49128e-21)
(10.1663 -0.0119288 1.79742e-20)
(10.1677 -0.0190131 4.11171e-21)
(10.1709 -0.0178424 1.34404e-20)
(10.1709 -0.0223762 -1.95291e-21)
(10.1721 -0.017696 3.80182e-22)
(10.1683 -0.0143432 -2.20951e-21)
(10.1694 -0.0195201 8.6793e-21)
(10.1625 -0.0250289 0)
(10.2431 -0.0113452 -2.68091e-22)
(10.0002 0.00576236 -4.06148e-20)
(10.0016 0.015346 8.27232e-20)
(10.0388 0.00743763 -2.92259e-20)
(10.0282 0.0195714 -5.32101e-20)
(10.0054 0.0232378 3.26333e-20)
(10.0107 0.0237526 -2.44797e-20)
(10.0205 0.0216375 5.20146e-20)
(9.99812 -0.0115131 0)
(9.99964 -0.00369925 0)
(9.99562 -0.0495733 -1.67794e-20)
(9.99021 -0.0373562 -5.57337e-20)
(9.99263 -0.0285309 1.70764e-20)
(9.99556 -0.0198245 1.86054e-21)
(10.1294 -0.120859 -1.73391e-20)
(10.4297 -0.19463 -1.73009e-19)
(10.1871 -0.141318 -4.56165e-21)
(10.3358 -0.183465 2.63743e-20)
(10.2546 -0.170511 2.99625e-20)
(10.0896 -0.0917669 -4.40301e-20)
(10.0717 -0.0773532 -1.30847e-20)
(10.106 -0.120136 2.44015e-20)
(10.0438 -0.0869613 -7.259e-20)
(10.0215 -0.0847294 0)
(10.0054 -0.0762221 -1.34107e-20)
(9.99426 -0.0625067 -3.59076e-21)
(10.3034 -0.0456768 5.32386e-22)
(7.93231 -0.0224584 0)
(8.78228 0.0615754 1.11747e-21)
(8.69509 -0.0299608 0)
(10.1348 0.0194154 -1.33487e-21)
(10.3541 0.0365233 -5.95379e-22)
(10.2088 0.0612111 9.40914e-23)
(10.2077 0.0498952 0)
(10.1941 0.0439197 8.91849e-22)
(10.1761 0.0610211 1.57222e-20)
(10.2255 0.0439688 0)
(10.2399 0.0380359 3.36394e-20)
(10.2713 0.0133252 -4.3744e-21)
(10.256 0.0289897 -3.87157e-20)
(10.3098 0.00233245 -2.53142e-21)
(10.3587 0.0308339 9.62327e-20)
(10.3963 0.00753257 -4.42904e-20)
(10.4345 -0.0478556 1.61616e-19)
(10.4674 -0.138479 3.97386e-20)
(10.157 -0.00187226 0)
(10.1639 -0.00511445 0)
(10.1708 -0.0110179 -2.44077e-20)
(10.1724 -0.0147102 6.50887e-22)
(10.1684 -0.0231046 -9.49123e-21)
(10.1722 -0.0205382 0)
(10.1739 -0.0264326 -2.42169e-21)
(10.1746 -0.0191454 -3.83607e-21)
(10.1736 -0.0203782 3.53017e-21)
(10.1691 -0.0270738 4.35983e-21)
(10.2608 -0.0136453 1.21009e-22)
(10.0001 0.00434488 3.33595e-20)
(10.0004 0.0131243 8.36174e-20)
(10.0018 0.0206617 -1.22277e-19)
(10.0037 0.0245433 -4.4335e-20)
(10.057 0.00733533 0)
(10.0413 0.0194757 3.40828e-20)
(10.0334 0.0301802 -4.1099e-20)
(10.0089 0.0290951 -1.42931e-20)
(10.0168 0.0302371 0)
(10.0272 0.0310927 -8.74796e-20)
(10.0774 0.00695103 -4.22792e-21)
(9.99704 -0.00801432 5.01367e-20)
(9.99954 -0.00228587 0)
(9.99985 0.00370559 0)
(9.98793 -0.0473083 -2.07403e-20)
(9.9854 -0.031578 4.39402e-20)
(9.99237 -0.0154099 -5.40328e-20)
(9.98821 -0.0235022 0)
(10.1493 -0.155353 -3.35852e-22)
(10.3836 -0.243825 1.49857e-20)
(10.2114 -0.194269 5.89656e-21)
(10.2897 -0.220206 3.09694e-22)
(10.0817 -0.115731 3.31801e-20)
(10.0606 -0.0989232 5.99395e-20)
(10.1122 -0.160296 0)
(9.98325 -0.0602267 4.40572e-20)
(10.0332 -0.103693 -7.78828e-22)
(10.0094 -0.0952301 0)
(9.99233 -0.0781719 -1.65776e-20)
(10.2869 -0.0421424 -7.73545e-23)
(7.90018 -0.0266439 4.54014e-22)
(8.69858 0.068073 -6.96242e-22)
(8.64889 -0.0269034 -1.23603e-21)
(10.2081 0.0708752 0)
(10.1219 0.00704599 1.1312e-22)
(10.3478 0.0396371 -1.1804e-22)
(10.2062 0.067307 -2.32864e-20)
(10.1901 0.0704477 3.65671e-21)
(10.2486 0.062818 -7.64512e-21)
(10.2332 0.0613142 2.84154e-20)
(10.2906 0.0373686 -5.48653e-20)
(10.3239 0.0460288 -1.00537e-19)
(10.2711 0.0408267 7.16469e-20)
(10.3827 0.0484281 0)
(10.4462 0.00871363 9.69066e-20)
(10.496 -0.0759734 0)
(10.159 -0.0016086 4.33867e-21)
(10.1713 -0.00411307 4.4799e-20)
(10.1755 -0.00926677 0)
(10.1774 -0.014387 -3.78277e-22)
(10.1783 -0.0210365 -1.05449e-20)
(10.1699 -0.0293806 0)
(10.1746 -0.0225982 0)
(10.1776 -0.0295625 -3.54789e-22)
(10.1794 -0.0213236 1.02189e-20)
(10.1701 -0.0342126 1.12784e-21)
(10.2637 -0.0191808 -1.08259e-21)
(10.1563 0.000496446 -5.27889e-21)
(10.1516 0.00160119 0)
(9.99937 0.0130908 1.34616e-20)
(9.99925 0.0213922 0)
(10.0029 0.028769 4.65754e-20)
(10.0068 0.0324787 1.43337e-20)
(10.0576 0.0203676 0)
(10.0441 0.0315041 5.71798e-20)
(10.0345 0.0368948 3.77473e-21)
(10.0144 0.0367239 0)
(10.0243 0.0380243 0)
(10.0758 0.021909 -4.31622e-22)
(10.0983 0.00594233 -4.05367e-21)
(10.1177 0.00349184 0)
(10.1334 0.000155534 4.69604e-20)
(10.1467 0.00504566 -4.64845e-20)
(9.99927 0.00064433 0)
(9.99572 -0.00261023 0)
(9.99966 0.00200018 0)
(9.99823 0.0115424 0)
(9.97159 -0.0514495 -2.15784e-20)
(9.98002 -0.0395161 5.48445e-20)
(9.98184 -0.0249425 0)
(9.98895 -0.00926072 5.34769e-20)
(10.1641 -0.213958 2.0858e-20)
(10.3307 -0.287344 2.31518e-20)
(10.2387 -0.251975 -2.11085e-20)
(10.0513 -0.123405 2.83573e-21)
(10.0774 -0.139378 -6.30554e-22)
(10.0969 -0.191823 1.04848e-20)
(10.1188 -0.229938 -3.68995e-20)
(9.96073 -0.0655641 0)
(9.97672 -0.0760173 -2.64625e-21)
(10.0186 -0.118593 0)
(9.99121 -0.0998252 0)
(10.3062 -0.0435411 0)
(8.60749 0.0737814 -1.71787e-22)
(7.85609 -0.0309138 -2.60779e-22)
(8.71544 -0.0394428 -1.01428e-20)
(10.3332 0.0514079 0)
(10.1662 -0.00310509 -4.2568e-21)
(10.2187 0.0957176 -3.98736e-21)
(10.2414 0.0727643 -1.40717e-20)
(10.3203 0.0856267 0)
(10.2789 0.0802232 0)
(10.3615 0.0806186 -3.90075e-20)
(10.4432 0.0643434 4.53748e-21)
(10.5129 -0.00720338 2.47415e-20)
(10.1693 0.000871941 -5.35394e-20)
(10.1803 -0.00708117 0)
(10.1829 -0.0128303 1.44889e-20)
(10.1842 -0.0208406 3.79305e-22)
(10.1847 -0.0230755 1.82936e-21)
(10.1726 -0.0367333 -1.16249e-21)
(10.1786 -0.0255236 1.53663e-21)
(10.1826 -0.0324551 0)
(10.2663 -0.0251174 3.02516e-22)
(10.172 -0.0416194 -7.42152e-22)
(10.1567 0.0133454 2.24324e-20)
(10.1668 0.00522785 8.76032e-21)
(10.1611 0.00984488 -2.85427e-21)
(9.99798 0.0212399 1.63996e-20)
(9.99973 0.0292927 -3.18886e-20)
(10.005 0.0372148 -1.61029e-20)
(10.0118 0.0416959 1.36546e-20)
(10.0586 0.0335479 0)
(10.0451 0.040955 2.20708e-20)
(10.0334 0.0450176 -3.57093e-21)
(10.0219 0.0456586 1.12455e-21)
(10.0746 0.0364049 -1.72024e-20)
(10.0962 0.0270775 1.46487e-20)
(10.0917 0.0378031 -7.58255e-21)
(10.1582 0.0227918 1.36495e-20)
(10.1155 0.0254655 -1.12801e-23)
(10.1474 0.023857 -1.15525e-21)
(10.1332 0.0238434 4.13567e-21)
(9.99665 0.00852665 0)
(9.99262 0.00363093 0)
(9.99564 0.0196143 6.10247e-20)
(9.98541 0.00244221 -1.07188e-19)
(9.96077 -0.0417151 -5.67952e-20)
(9.97242 -0.0311241 2.54975e-20)
(9.98089 -0.0125223 1.70426e-20)
(9.94677 -0.0509313 0)
(10.1844 -0.276264 0)
(10.2717 -0.324644 1.49796e-20)
(10.0366 -0.1556 -2.35463e-20)
(10.0557 -0.21008 3.16338e-20)
(10.0613 -0.168766 3.08017e-20)
(10.0653 -0.248086 -1.58201e-20)
(10.1285 -0.293561 6.25825e-21)
(9.96894 -0.0962662 -4.44762e-20)
(9.94791 -0.0813483 5.29376e-20)
(9.99174 -0.129619 -3.86159e-20)
(10.3892 -0.0543861 2.69745e-21)
(8.51382 0.103513 8.96801e-21)
(7.78551 -0.0326914 -4.76234e-20)
(8.72387 -0.0980773 -5.9152e-21)
(10.3602 0.0609004 1.69504e-20)
(10.2567 0.0168229 -1.84446e-20)
(10.252 0.108576 4.21073e-20)
(10.263 0.0819311 -2.31762e-20)
(10.3417 0.118072 1.84281e-19)
(10.4263 0.118304 3.11734e-19)
(10.5174 0.0634385 -2.3554e-19)
(10.1814 -0.00175964 0)
(10.1886 -0.00957425 -3.03825e-20)
(10.1911 -0.0191015 -1.09312e-22)
(10.1918 -0.0239169 -1.18865e-20)
(10.1893 -0.0342079 1.19144e-21)
(10.1782 -0.044656 3.8849e-22)
(10.1845 -0.0294118 5.87352e-22)
(10.2331 -0.0325462 -2.68208e-22)
(10.1693 -0.0499125 0)
(10.1671 0.0145984 0)
(10.1816 0.00471263 0)
(9.99305 0.0283352 1.01853e-19)
(9.99684 0.0297937 -1.67969e-20)
(10.001 0.0385734 4.97945e-20)
(10.0089 0.0477007 0)
(10.0193 0.0526352 -4.34757e-20)
(10.059 0.0454457 -6.45458e-21)
(10.045 0.0510232 -1.45258e-21)
(10.0316 0.0546805 1.48175e-20)
(10.0744 0.0484593 1.09753e-20)
(10.0909 0.0553785 1.71187e-20)
(10.1065 0.0473651 -6.03835e-21)
(10.1683 0.0239675 5.97086e-21)
(10.1638 0.0307901 1.45135e-20)
(10.1218 0.0443007 1.21085e-21)
(10.1537 0.0350604 -2.50648e-21)
(10.1395 0.0399708 -1.32416e-20)
(9.99258 0.0164992 5.80917e-20)
(9.98735 0.0117366 7.48857e-20)
(9.9891 0.0248705 -2.20973e-19)
(9.97704 0.000862814 -1.78154e-20)
(9.93091 -0.0667376 1.64501e-20)
(9.95033 -0.0236199 -2.77349e-19)
(9.96442 -0.0122698 8.90088e-20)
(9.9341 -0.0260274 0)
(9.98672 0.0317054 4.48727e-20)
(10.2074 -0.353164 -3.08822e-21)
(9.99981 -0.170994 0)
(10.0114 -0.202567 6.75938e-20)
(10.0204 -0.249351 -3.92433e-20)
(10.0698 -0.303697 0)
(10.1382 -0.371546 -4.53227e-21)
(9.94628 -0.162163 -9.44918e-20)
(9.95311 -0.129224 3.23219e-20)
(9.92724 -0.11967 -1.34335e-19)
(10.4167 -0.0956026 7.44029e-21)
(8.32329 0.223336 3.2818e-21)
(7.78369 -0.0421497 2.98604e-19)
(8.31898 -0.228057 -1.70316e-19)
(10.3275 0.149802 -1.86543e-21)
(10.2874 0.143102 -1.60592e-19)
(10.3539 0.148166 8.16831e-20)
(10.3952 0.16754 -1.84517e-19)
(10.5062 0.136404 -7.77159e-21)
(10.1936 -0.00418469 1.59927e-20)
(10.1984 -0.0150093 -3.41977e-23)
(10.2006 -0.02273 1.69799e-20)
(10.1986 -0.0345138 -1.12859e-21)
(10.185 -0.0540203 -7.48756e-22)
(10.1927 -0.0333011 1.86588e-21)
(10.2111 -0.0519624 1.56291e-22)
(10.1762 -0.0604572 2.01923e-20)
(10.1818 0.0133097 0)
(10.1974 0.00374517 -1.82515e-20)
(9.99125 0.0370811 -3.71473e-20)
(9.9965 0.0391266 -3.32717e-20)
(10.0037 0.0512451 0)
(10.0162 0.0614167 -2.77388e-20)
(10.0295 0.0631232 1.58378e-20)
(10.0593 0.0565507 6.20888e-21)
(10.0439 0.0635395 0)
(10.0758 0.0615364 -3.0995e-21)
(10.0945 0.0631435 -1.72542e-21)
(10.1133 0.0627185 4.38953e-21)
(10.1812 0.0243718 -1.04358e-20)
(10.1751 0.0349679 0)
(10.1314 0.0589067 -5.37709e-22)
(10.1642 0.0447219 -1.05412e-21)
(10.1492 0.0525812 -7.25774e-21)
(9.97911 0.0114815 -3.24531e-20)
(9.98209 0.0238855 0)