/*--------------------------------*- C++ -*----------------------------------*\
  =========                 |
  \\      /  F ield         | OpenFOAM: The Open Source CFD Toolbox
   \\    /   O peration     | Website:  https://openfoam.org
    \\  /    A nd           | Version:  8
     \\/     M anipulation  |
\*---------------------------------------------------------------------------*/
FoamFile
{
    version     2.0;
    format      ascii;
    class       volVectorField;
    location    "0.097";
    object      U;
}
// * * * * * * * * * * * * * * * * * * * * * * * * * * * * * * * * * * * * * //

dimensions      [0 1 -1 0 0 0 0];

internalField   nonuniform List<vector> 
656
(
(0.743372 0.0565316 -9.65481e-25)
(0.927889 0.0140691 1.86667e-24)
(0.954788 -0.00127375 0)
(-0.0910749 0.118994 2.40002e-23)
(0.556742 0.0977245 1.12098e-23)
(0.841242 0.000939744 0)
(-0.0571798 0.0672276 -4.93902e-23)
(-0.0145962 0.018846 9.85104e-24)
(0.968227 -0.00015084 0)
(-0.000504539 0.138601 -2.37828e-24)
(-0.00304955 0.193131 -7.83495e-23)
(-0.117738 0.172053 0)
(0.376006 0.139834 1.00526e-23)
(0.715019 0.00930684 0)
(0.890989 0.00127448 -1.70667e-22)
(0.906567 0.000583102 4.77898e-23)
(0.00104049 0.0823432 9.70507e-24)
(0.00137428 0.0267217 0)
(0.971852 -7.63391e-05 -3.43357e-23)
(0.913662 0.00029856 -1.43719e-22)
(-0.0123884 0.0928732 7.71104e-23)
(-0.00523407 0.062872 0)
(-0.0239222 0.125114 1.33361e-24)
(-0.00789619 0.242543 1.53982e-22)
(-0.136115 0.223437 -1.67657e-22)
(0.210343 0.18042 -2.26587e-23)
(0.577674 0.0245875 0)
(0.8007 0.00637692 2.66449e-22)
(0.829494 0.00303222 -8.91624e-23)
(-0.00144234 0.0356645 0)
(-0.000151565 0.0114448 0)
(0.916986 0.000158367 5.13467e-23)
(0.973373 -4.6946e-05 -3.66608e-23)
(0.842959 0.00161743 1.95816e-22)
(0.849425 0.000810494 -5.18089e-23)
(0.854031 6.35053e-05 -1.08889e-22)
(-0.00677975 0.0608904 -1.05381e-22)
(-0.00280708 0.0409241 1.7071e-23)
(-0.0137926 0.0825097 -1.88325e-22)
(-0.0408484 0.158564 -1.577e-22)
(-0.0167101 0.28282 1.66501e-22)
(-0.143742 0.269547 -4.77709e-24)
(0.0686489 0.217917 4.55154e-22)
(0.433182 0.0474137 0)
(0.696558 0.0162323 0)
(0.739382 0.00802649 -3.69821e-22)
(-0.00082163 0.0230279 -5.40252e-24)
(-0.000128818 0.00732298 0)
(0.854943 -0.000883153 1.20144e-22)
(0.919453 2.84584e-05 -2.78104e-23)
(0.974008 -2.02049e-05 4.92918e-24)
(0.75977 0.00435532 0)
(0.769765 0.00218551 0)
(0.776843 0.000152042 -1.06666e-22)
(0.778388 -0.00237205 4.59706e-22)
(0.763627 -0.00604323 0)
(-0.0103745 0.0366041 2.00131e-22)
(-0.00502145 0.0257396 2.95145e-22)
(-0.00202819 0.0165171 -2.87513e-22)
(-0.0250269 0.104803 -1.85263e-22)
(-0.0193443 0.0489366 5.84786e-22)
(0.28681 0.0796721 -1.32799e-22)
(0.57847 0.0319868 1.75137e-22)
(0.635201 0.0165802 -5.20768e-22)
(-0.000553535 0.00884741 4.53702e-23)
(-6.70888e-05 0.00256179 6.0905e-23)
(0.844861 -0.00224246 -2.5466e-22)
(0.92 -0.00014638 8.54502e-23)
(0.974687 1.29043e-05 5.47827e-24)
(0.726768 -0.015198 -1.16792e-23)
(0.662692 0.00911929 0)
(0.676457 0.0046646 1.93316e-22)
(0.686387 0.000386465 2.04132e-22)
(0.688971 -0.00481305 -8.82331e-22)
(0.669712 -0.0125431 2.27279e-22)
(-0.0083988 0.0139349 8.88421e-22)
(-0.00405364 0.00913809 -6.8345e-24)
(-0.00182771 0.00550512 0)
(-0.00064361 0.00295303 1.0577e-22)
(0.447786 0.0558281 0)
(0.516952 0.0303683 6.66113e-22)
(-8.94476e-05 0.00127332 -1.00135e-22)
(5.5325e-05 0.000241389 -3.08628e-23)
(0.604786 -0.0240906 4.71813e-22)
(0.82026 -0.00592586 1.49694e-22)
(0.914485 -0.000374946 0)
(0.975031 4.1989e-05 -5.28356e-23)
(0.619973 -0.0302311 -2.88771e-22)
(0.468209 -0.0472383 7.26193e-22)
(0.251479 -0.190757 -8.79081e-22)
(0.550826 0.0170805 0)
(0.568151 0.00874888 4.66271e-23)
(0.58124 0.000992643 -1.45194e-22)
(0.585541 -0.00871513 5.11886e-22)
(0.56258 -0.0231808 -8.69611e-22)
(-0.0147911 0.00626418 3.73776e-22)
(-0.00924713 0.0030667 -3.98853e-22)
(-0.00537222 0.00139791 -1.97735e-22)
(-0.00279645 0.000480314 3.91348e-22)
(-0.00116583 4.38413e-05 4.713e-23)
(-0.000203188 -6.2062e-05 -2.84976e-23)
(-0.136728 -0.250241 5.90066e-23)
(0.411944 -0.147966 -6.13836e-23)
(0.732778 -0.00901641 -7.95845e-22)
(0.901186 -0.00112449 0)
(0.973747 0.000109572 0)
(0.499722 -0.0539486 5.52146e-22)
(0.325513 -0.0810145 -2.7733e-22)
(0.106283 -0.230036 1.02582e-22)
(-0.141409 -0.298198 1.38428e-21)
(-0.0465803 0.0112551 0)
(-0.0340209 0.00583953 1.86863e-22)
(-0.0235914 0.00285792 -6.59976e-22)
(-0.0149878 0.00114531 1.84041e-22)
(-0.00792709 0.000287612 -4.38527e-23)
(-0.00212802 2.17915e-05 -2.72268e-23)
(-0.00754382 -0.28903 0)
(-0.120665 -0.194926 0)
(0.582914 -0.103403 4.88166e-22)
(0.850387 -0.000878696 -3.99584e-23)
(0.970606 0.000203289 -1.0304e-22)
(-0.0155569 -0.33292 -1.64648e-21)
(-0.0760015 0.0100106 0)
(-0.0568623 0.00552754 1.9315e-22)
(-0.0403702 0.00276358 -1.41143e-24)
(-0.0262671 0.00117179 9.54885e-23)
(-0.0142712 0.000360379 -4.48733e-23)
(-0.0041164 7.18021e-05 0)
(-0.0276218 -0.164275 -5.51166e-22)
(-0.00296272 -0.233229 0)
(-0.0949969 -0.136206 5.08316e-22)
(0.75789 -0.0597746 0)
(0.956555 0.00135216 7.64116e-23)
(-0.0466778 -0.205096 0)
(-0.0980846 0.0082898 0)
(-0.0741666 0.004609 1.20078e-22)
(-0.0531752 0.00234379 -3.48152e-22)
(-0.0349417 0.0010281 1.12646e-22)
(-0.0192397 0.000345413 5.03483e-23)
(-0.00578431 8.89843e-05 -1.68739e-23)
(-0.015655 -0.119028 2.82625e-22)
(-0.0145372 -0.123353 0)
(-0.000248164 -0.169217 -4.45518e-22)
(-0.0605237 -0.0776122 4.30418e-22)
(0.931395 -0.0147218 0)
(-0.0284336 -0.148595 0)
(-0.107005 0.00724215 1.53155e-22)
(-0.0810007 0.00408769 -1.47862e-22)
(-0.0581645 0.00207797 1.43073e-22)
(-0.0382911 0.000905995 -2.73887e-22)
(-0.0211551 0.000304644 3.76654e-22)
(-0.00650422 7.86169e-05 -5.02184e-23)
(-0.0133574 -0.0678613 2.43769e-22)
(-0.00771819 -0.089099 -5.22016e-22)
(-0.00596344 -0.0840668 1.52074e-22)
(0.00181257 -0.100771 -4.6198e-22)
(-0.014189 -0.0214027 1.30993e-23)
(-0.0241151 -0.0868542 0)
(-0.0154617 -0.0452169 -5.49846e-23)
(-0.107964 0.00780894 -1.88582e-22)
(-0.0816244 0.00492892 7.60118e-22)
(-0.0586941 0.00264441 -7.25763e-22)
(-0.0387754 0.00113992 0)
(-0.0215135 0.000351543 0)
(-0.00671228 7.27362e-05 -5.50899e-24)
(-0.00849446 -0.0350829 1.17253e-22)
(-0.00666788 -0.049794 3.44447e-24)
(-0.00302972 -0.0605439 3.97954e-22)
(-0.00125803 -0.0475669 -1.49542e-22)
(0.00233743 -0.0310267 0)
(-0.00873867 -0.0196313 8.91155e-22)
(-0.0632764 0.00409155 8.291e-22)
(-0.0414414 0.00257073 -8.57304e-22)
(-0.0227755 0.000908332 0)
(-0.00700821 0.000157904 -7.76625e-24)
(-0.00480668 -0.0146296 -2.36315e-22)
(-0.00418806 -0.0254857 -9.16752e-23)
(-0.00273025 -0.0332937 1.89004e-22)
(-0.000643011 -0.0342514 -1.29325e-22)
(0.000182382 -0.0143651 4.94292e-23)
(-0.00447457 -0.00526453 0)
(-0.00270609 0.00320105 -1.02407e-21)
(-0.0505276 0.00118011 0)
(-0.0176846 0.000393825 -2.71406e-23)
(-0.00152207 0.000804221 0)
(-0.00238156 -0.0035882 -2.40559e-22)
(-0.0023452 -0.0102342 -4.59275e-22)
(-0.00172137 -0.0168636 -6.24874e-23)
(-0.000724386 -0.0186278 1.27155e-22)
(7.65248e-05 -0.0106535 -4.96195e-23)
(-0.00108026 -0.000901925 2.08811e-21)
(-0.00130629 0.00154803 2.17907e-21)
(-0.00310789 0.00369397 7.02071e-23)
(-0.00013231 0.00198949 -4.81421e-22)
(-0.000749162 0.00104835 -9.82522e-25)
(-0.00111842 -0.00225136 1.24587e-22)
(-0.000958386 -0.00653702 3.71986e-22)
(-0.000484011 -0.0093518 7.62147e-24)
(-6.56822e-05 -0.00583942 -2.27909e-23)
(-0.00014741 -0.00257551 -1.88366e-24)
(-0.000453322 -0.00141138 -1.74693e-21)
(-0.000547703 0.000678953 -5.2692e-22)
(-0.00136143 0.00157888 0)
(-0.00319377 0.00914429 1.51722e-21)
(0.000389222 0.00151008 -2.58748e-22)
(-4.01182e-06 0.00176503 2.56504e-22)
(-0.000314499 0.00105892 1.28438e-22)
(-0.000440228 -0.00126608 0)
(-0.000272131 -0.0035062 -1.2192e-22)
(-6.47755e-05 -0.00293411 1.71268e-23)
(0.000229807 -0.0028242 8.27434e-22)
(1.29868e-05 -0.00241843 3.33751e-22)
(-0.000162191 -0.00146221 1.96694e-22)
(-0.000173919 0.000193321 5.36033e-23)
(-0.000334949 0.00054588 -6.14605e-23)
(-0.000459821 0.00212038 1.0924e-21)
(0.000310251 0.00053479 1.08136e-21)
(0.000248395 0.00126939 -4.0476e-22)
(2.98062e-05 0.00143276 -2.63976e-22)
(-0.000107181 0.000883881 -1.28486e-22)
(-0.000115846 -0.000584158 0)
(-3.96769e-05 -0.00106227 -1.12742e-23)
(0.000528011 -0.00205873 0)
(0.000185019 -0.00240454 -2.86303e-22)
(4.71865e-05 -0.00200887 -9.86503e-22)
(-3.77052e-05 -0.00121451 3.2149e-22)
(-2.21866e-05 -2.83779e-05 -3.58209e-22)
(-1.25001e-05 1.19644e-05 9.65594e-24)
(0.000532081 0.000192063 -4.69797e-22)
(0.000171519 0.000398938 7.16204e-22)
(0.000139519 0.000980729 -6.92982e-22)
(2.76356e-05 0.00103607 1.32346e-22)
(-1.72688e-05 0.000583966 0)
(-1.10015e-05 -0.000141971 1.11475e-23)
(0.000388917 -0.000698812 0)
(0.000316801 -0.00169628 5.50365e-22)
(0.000115032 -0.00187534 7.1644e-22)
(3.7816e-05 -0.00146587 9.39679e-22)
(8.23573e-06 -0.00079122 -3.338e-22)
(9.77957e-06 -5.50446e-05 -2.20475e-23)
(0.00120547 0.00027732 -5.60813e-22)
(0.000378428 0.000104434 0)
(8.37099e-05 0.000273315 5.14328e-22)
(6.48713e-05 0.000678697 0)
(1.68367e-05 0.000614531 0)
(6.2276e-06 0.000211532 0)
(0.000718724 -0.000234866 6.27186e-22)
(0.000209889 -0.000524547 -5.69271e-22)
(0.000168866 -0.00128772 -5.60028e-22)
(5.82732e-05 -0.00130854 -4.18078e-22)
(2.3848e-05 -0.000872142 -4.34759e-22)
(1.31874e-05 -0.000279336 1.31222e-23)
(0.00168603 0.000145661 0)
(0.000961268 0.00015919 1.40554e-22)
(0.000249784 5.15539e-05 0)
(3.23402e-05 0.000167287 1.98727e-27)
(2.19699e-05 0.000385239 0)
(8.67182e-06 0.000196663 -8.98034e-23)
(0.00183425 -2.67088e-05 0)
(0.00156421 -0.00025827 -5.66059e-22)
(0.000522197 -0.000131927 -1.5799e-22)
(9.94296e-05 -0.000360127 2.91849e-22)
(7.56697e-05 -0.000877464 -4.14964e-22)
(2.45369e-05 -0.000750075 -1.31464e-22)
(1.2293e-05 -0.000280632 9.15686e-23)
(0.0013535 8.23612e-05 -1.88764e-23)
(0.00071553 8.24795e-05 -2.10202e-22)
(0.000149286 2.00358e-05 0)
(6.31746e-06 8.30143e-05 -1.0821e-22)
(5.51716e-06 0.000112645 9.05926e-23)
(0.00147074 -1.8044e-05 2.09892e-24)
(0.0012473 -0.000151886 6.35707e-22)
(0.000352541 -6.60391e-05 -4.72317e-27)
(3.7779e-05 -0.000221167 1.34933e-25)
(2.46166e-05 -0.00049054 -2.65275e-22)
(9.49859e-06 -0.000226848 8.36337e-23)
(0.00101781 4.25608e-05 1.4857e-22)
(0.000483186 3.638e-05 1.02542e-22)
(7.3421e-05 3.85861e-06 -1.26143e-22)
(-1.22141e-06 1.91399e-05 2.30053e-23)
(0.00110591 -1.07262e-05 2.0944e-24)
(0.00093129 -8.12821e-05 -1.40607e-22)
(0.000215852 -2.61382e-05 4.54169e-22)
(7.22523e-06 -0.000110376 -2.1277e-22)
(6.0114e-06 -0.000139093 3.40377e-26)
(0.000696144 1.89759e-05 0)
(0.000271396 1.19833e-05 1.13807e-22)
(1.73682e-05 -1.10292e-06 7.96668e-23)
(0.000756916 -5.78906e-06 0)
(0.000631549 -3.70998e-05 -2.057e-22)
(0.000108928 -5.34276e-06 3.95909e-22)
(-1.46384e-06 -2.55815e-05 4.39588e-23)
(0.000398343 6.50689e-06 -9.70975e-25)
(8.26847e-05 2.82897e-06 -1.43009e-22)
(0.000433642 -2.79696e-06 9.69712e-25)
(0.00035655 -1.29662e-05 -1.14033e-22)
(2.67359e-05 1.1871e-06 1.12934e-22)
(0.000128977 1.65489e-06 4.33798e-23)
(0.000140687 -1.2332e-06 0)
(0.000109505 -3.58848e-06 -1.09967e-23)
(-0.142805 0.304015 2.22384e-21)
(-0.0269628 0.258916 5.09922e-22)
(-0.0419225 0.128296 0)
(-0.0753956 0.189539 2.78623e-21)
(-0.0629118 0.19421 -2.94436e-21)
(-0.073022 0.268242 0)
(-0.0373497 0.311078 0)
(-0.0980452 0.353175 -1.02569e-21)
(-0.0849303 0.314173 0)
(-0.038841 0.266567 -1.88531e-21)
(0.152159 0.126701 4.23773e-21)
(-0.0955074 0.278837 0)
(-0.0338099 0.0636954 -3.65697e-22)
(-0.0560702 0.10525 0)
(-0.0162072 0.0192656 -3.81809e-21)
(-0.0385986 0.0469828 3.90722e-21)
(-0.0831657 0.121715 -2.27027e-21)
(-0.114795 0.159415 0)
(-0.0954014 0.203483 0)
(-0.119101 0.24024 6.18362e-22)
(-0.10878 0.295516 0)
(-0.0974965 0.289536 1.95869e-21)
(-0.0152742 0.19448 2.36968e-21)
(0.0946772 0.155501 -5.71835e-21)
(0.302808 0.0912268 1.1234e-21)
(-0.149954 0.235269 -5.90024e-22)
(-0.140543 0.252469 0)
(-0.0215697 0.0120701 -3.15874e-21)
(-0.0491873 0.028652 8.65326e-22)
(-0.0607813 0.052156 7.20345e-22)
(-0.0913818 0.081873 2.30837e-21)
(-0.121538 0.0806729 -4.44499e-21)
(-0.167505 0.115469 -3.93327e-21)
(-0.159415 0.156947 -3.00645e-21)
(-0.184491 0.185495 5.63124e-21)
(-0.130934 0.208746 -1.64175e-21)
(-0.0600026 0.184083 -1.71406e-21)
(0.0433093 0.128478 0)
(0.387488 0.0504159 -5.74685e-21)
(0.190368 0.106437 0)
(0.423925 0.0298139 0)
(0.243699 0.0593234 4.83685e-21)
(-0.20681 0.172881 0)
(-0.178848 0.179871 0)
(-0.010847 -0.277365 6.03709e-21)
(-0.146114 -0.33037 0)
(0.386544 -0.0835116 0)
(0.436603 0.0148339 -1.97023e-22)
(0.273597 0.0341755 0)
(0.269521 -0.0944412 0)
(0.456531 -0.0376443 1.1832e-21)
(0.458429 0.00179159 3.69632e-21)
(0.29658 0.00855291 0)
(0.320022 -0.0442478 0)
(0.473855 -0.0152629 0)
(0.325097 -0.0149193 -3.75314e-21)
(-0.0639559 0.0225517 1.14952e-21)
(-0.0974188 0.0360227 -1.44531e-21)
(-0.120521 0.0485927 4.75467e-21)
(-0.173508 0.0548068 0)
(-0.202303 0.0851153 0)
(-0.231692 0.0954738 -3.1048e-21)
(-0.249597 0.120086 -2.36308e-21)
(-0.152318 0.139204 0)
(0.0674798 0.0804193 3.34717e-21)
(-0.035285 0.118036 0)
(0.151949 0.043566 0)
(0.00479684 0.0682079 -3.61974e-21)
(-0.267033 0.106391 7.84726e-21)
(-0.228673 0.113315 -2.31886e-21)
(-0.0112091 -0.264237 -3.40716e-21)
(0.172354 -0.13773 7.67052e-21)
(0.147214 -0.156983 -6.00212e-21)
(-0.114827 -0.387008 1.70474e-21)
(-0.0771424 -0.329038 -3.71048e-21)
(-0.0361737 -0.360387 2.43751e-22)
(0.0477276 -0.183755 -6.36435e-21)
(0.0511361 -0.153934 2.08615e-21)
(0.149731 -0.110152 3.22715e-21)
(0.134004 0.0100574 0)
(0.0258901 0.038128 0)
(0.0865156 -0.0943345 -3.55657e-21)
(0.189492 -0.0572682 0)
(0.101098 -0.0463002 -3.31618e-21)
(0.200539 -0.0211011 3.02412e-21)
(0.0615373 -0.00977481 4.60933e-21)
(-0.0973006 0.0161603 1.65291e-21)
(-0.141108 0.0248625 0)
(-0.16821 0.0343271 0)
(-0.213582 0.0401081 3.2834e-21)
(-0.245119 0.058838 0)
(-0.274296 0.0598916 8.2624e-21)
(-0.294493 0.0759784 -7.06126e-21)
(-0.108256 0.0542715 0)
(-0.132025 0.069021 -5.67658e-21)
(-0.222718 0.0874098 1.15629e-20)
(-0.195121 0.0400588 0)
(-0.292502 0.0752984 -7.47357e-21)
(-0.306172 0.0691417 -3.98623e-21)
(-0.0856961 -0.315049 0)
(-0.0705382 -0.248577 7.72744e-21)
(-0.0719272 -0.243756 0)
(-0.063932 -0.32305 -5.27585e-22)
(-0.0899584 -0.326036 4.14361e-22)
(-0.102161 -0.242422 -7.93624e-21)
(-0.0603379 -0.188507 -7.29073e-21)
(-0.0903593 -0.162641 9.69494e-21)
(-0.037175 -0.116158 2.98966e-21)
(-0.103641 -0.0834656 -3.91714e-21)
(-0.0500296 -0.0527866 0)
(-0.0772188 -0.0178729 -3.18618e-21)
(-0.172125 0.0108969 0)
(-0.123471 0.0131842 0)
(-0.16778 0.0198124 -1.28101e-21)
(-0.198094 0.0256513 -5.01979e-21)
(-0.23252 0.0320192 4.30488e-21)
(-0.261246 0.0426994 -1.53211e-21)
(-0.279707 0.0448653 -1.96661e-21)
(-0.307512 0.0567951 6.22748e-21)
(-0.277592 0.0468825 -6.94643e-21)
(-0.30105 0.0619537 8.46946e-21)
(-0.264018 0.0155268 0)
(-0.298747 0.0397607 -1.19023e-21)
(-0.321167 0.0618843 0)
(-0.314361 0.0565672 0)
(-0.0467887 -0.174297 -1.23693e-20)
(-0.0894345 -0.248999 4.26681e-21)
(-0.10988 -0.258996 5.15499e-21)
(-0.121751 -0.288646 -7.1046e-22)
(-0.137725 -0.259309 6.5544e-22)
(-0.172231 -0.210031 -7.46635e-21)
(-0.174967 -0.170587 0)
(-0.195617 -0.112958 -9.32941e-21)
(-0.281277 0.0178953 -4.39168e-21)
(-0.237521 -0.0819603 6.78736e-21)
(-0.273983 -0.0184047 2.80128e-21)
(-0.135494 0.0115885 4.51752e-21)
(-0.294669 0.0530496 2.69733e-21)
(-0.173485 0.0179241 -3.22747e-21)
(-0.198936 0.0232821 -2.79434e-21)
(-0.226295 0.0312887 -6.05195e-21)
(-0.261507 0.0397399 1.35422e-21)
(-0.270898 0.0439443 -3.43183e-21)
(-0.294278 0.0460243 -2.6992e-21)
(-0.318238 0.0607727 6.72778e-22)
(-0.313226 0.0515551 1.23265e-21)
(-0.274839 0.0591652 4.81691e-21)
(-0.291152 0.056845 1.99652e-21)
(-0.301957 0.0645254 -1.27921e-21)
(-0.29412 0.0611491 -1.91856e-21)
(-0.242414 0.0645943 -6.67711e-21)
(-0.0389574 -0.105086 0)
(-0.0625013 -0.165991 8.27743e-21)
(-0.183074 0.0661273 0)
(-0.221453 0.0555659 4.37741e-21)
(-0.120778 0.0615409 8.4773e-21)
(-0.146577 0.058173 -5.59777e-21)
(-0.0860444 -0.181451 0)
(-0.125147 -0.221315 -4.90037e-21)
(-0.162279 -0.198663 1.5002e-20)
(-0.21943 0.0286149 -5.83721e-21)
(-0.245524 0.00874582 4.6204e-21)
(-0.179571 -0.157312 -1.06991e-20)
(-0.23049 -0.0769408 1.13788e-22)
(-0.222385 -0.0475247 -9.42586e-21)
(-0.135738 0.0117714 0)
(-0.266246 0.0528006 0)
(-0.245172 0.0395978 2.5967e-22)
(-0.250756 0.0463454 -3.54415e-22)
(-0.169208 0.0200998 -5.02247e-21)
(-0.197278 0.0263328 5.3414e-21)
(-0.215701 0.0314426 4.634e-21)
(-0.28484 0.0701727 1.83082e-21)
(-0.276875 0.0697532 -4.16907e-22)
(-0.24739 0.077434 3.63316e-21)
(-0.228234 0.0764839 1.32583e-21)
(-0.259229 0.0572892 -5.47572e-21)
(-0.264837 0.0719027 1.99898e-23)
(-0.271602 0.0638711 4.67546e-21)
(-0.201417 0.0821181 2.29948e-21)
(-0.176506 0.080432 -7.50234e-21)
(-0.119858 0.0731993 2.8829e-21)
(-0.145064 0.0806272 2.3815e-21)
(-0.0957099 0.0709198 -3.36804e-21)
(-0.0575659 0.0524468 0)
(-0.0759413 0.0589827 2.79832e-21)
(-0.0918715 0.0547552 -2.40034e-22)
(-0.0834282 0.0470406 0)
(-0.0249326 -0.0547227 -4.19627e-21)
(-0.0490764 -0.0950174 4.10557e-21)
(-0.0595069 -0.102593 2.88711e-21)
(-0.0951234 -0.1383 0)
(-0.107708 0.031755 1.0204e-20)
(-0.141142 0.0342307 0)
(-0.168901 0.0188899 5.66236e-21)
(-0.121308 -0.116504 1.30633e-22)
(-0.152644 -0.0268255 1.53358e-21)
(-0.151436 -0.124331 -4.2194e-21)
(-0.179981 -0.0561372 8.46574e-21)
(-0.0139534 -0.0251678 -4.96204e-22)
(-0.0255738 -0.0430873 0)
(-0.126003 0.0107819 0)
(-0.0850571 0.00384019 -5.1455e-22)
(-0.102855 0.005028 5.18696e-22)
(-0.223807 0.0441784 -3.00818e-21)
(-0.234485 0.054265 2.64529e-21)
(-0.150076 0.0166045 0)
(-0.184907 0.0256345 -2.45616e-21)
(-0.201144 0.0351562 2.95873e-21)
(-0.199209 0.0864362 1.24116e-21)
(-0.239284 0.0767428 -2.01769e-21)
(-0.232767 0.0817436 -2.56042e-21)
(-0.218733 0.0602221 -3.409e-21)
(-0.219075 0.0716473 6.75997e-22)
(-0.176344 0.0843058 0)
(-0.148089 0.0843907 0)
(-0.134587 0.0828164 0)
(-0.107081 0.0793852 -2.97558e-21)
(-0.087489 0.0727907 -1.67582e-21)
(-0.0674393 0.0661627 3.98958e-21)
(-0.0505258 0.0542454 0)
(-0.00780857 0.0145318 0)
(-0.00500051 0.00961369 -6.67879e-22)
(-0.0142651 0.025985 3.59747e-21)
(-0.0228615 0.0350547 -3.1536e-21)
(-0.0363452 0.0471484 0)
(-0.0258688 0.03291 -5.85684e-21)
(-0.0393751 0.0403162 3.75504e-23)
(-0.0107529 0.0154365 0)
(-0.0146982 0.0201799 -4.59986e-21)
(-0.00493266 0.00587302 0)
(-0.0416707 0.0354755 1.35516e-23)
(-0.0597481 0.0401249 2.05769e-23)
(-0.058928 0.0304377 3.55591e-21)
(-0.0924811 0.025954 -4.32545e-21)
(-0.0363815 -0.0479478 8.81291e-21)
(-0.0604585 -0.0669842 -1.85481e-20)
(-0.0882051 -0.0672185 3.9511e-21)
(-0.0877758 0.00901595 -2.28004e-21)
(-0.0966007 -0.037968 8.37686e-21)
(-0.117178 -0.0226119 -5.88531e-21)
(-0.00690019 -0.00708608 0)
(-0.013082 -0.0154609 0)
(-0.0161976 -0.0167657 -3.64655e-21)
(-0.0323235 -0.0283305 -5.33373e-21)
(-0.00421484 0.00680786 5.65156e-22)
(-0.117803 0.0104127 1.25357e-21)
(-0.0697795 0.000824354 0)
(-0.0874993 0.00282398 -1.09677e-21)
(-0.146699 0.0292966 1.49045e-21)
(-0.173555 0.037535 -4.4578e-21)
(-0.189331 0.0550489 -8.10665e-23)
(-0.162316 0.0678503 4.04891e-21)
(-0.181567 0.0761269 -4.75263e-21)
(-0.169064 0.0815082 3.23332e-21)
(-0.0990767 0.0791469 -3.93072e-21)
(-0.128483 0.0781586 6.07468e-23)
(-0.125918 0.0828419 1.11158e-21)
(-0.0371325 0.0531468 4.04607e-21)
(-0.0566225 0.0645363 -4.42168e-23)
(-0.0786215 0.0718141 1.95872e-21)
(-0.0111595 0.0273613 1.76765e-21)
(-0.027357 0.0448947 -2.14115e-21)
(-0.00631042 0.0177609 -1.5888e-21)
(-0.0165703 0.0185407 5.23523e-21)
(-0.026208 0.0239917 0)
(-0.00504102 0.0049855 4.11264e-21)
(-0.00739838 0.00750803 -7.26838e-21)
(-0.00222773 0.000334632 0)
(-0.00222405 0.000331505 0)
(-0.00450596 -0.00215493 -1.1554e-21)
(-0.0267828 0.0194266 5.2423e-21)
(-0.0413391 0.0217628 -1.58194e-23)
(-0.0412692 0.0142472 -1.0782e-20)
(-0.0632519 0.00757528 1.0884e-20)
(-0.0389593 -0.017936 3.80771e-21)
(-0.0543287 -0.0178048 -3.09013e-21)
(-0.0479364 -0.0026163 -3.8081e-21)
(-0.00654797 -0.00306621 7.17178e-22)
(-0.0130977 -0.00712767 2.03319e-21)
(-0.0214456 -0.00661993 1.40881e-21)
(-0.00507094 0.0134531 -3.05322e-21)
(-0.0292688 0.0495638 0)
(-0.0616474 0.0639656 0)
(-0.0931572 0.0360272 3.94697e-21)
(-0.108841 0.0553777 -2.76841e-21)
(-0.101075 0.0672076 0)
(-0.0222631 0.00259982 3.06211e-23)
(-0.0626342 0.0148131 0)
(-0.010026 0.0309592 -1.03653e-22)
(-0.000829232 0.00176165 -6.08664e-22)
(-0.000217482 0.00204888 2.99376e-21)
(-0.00929531 0.00687248 7.49977e-21)
(-0.0147098 0.0105717 0)
(-0.00154226 -0.000792464 -3.39873e-21)
(-0.00344563 0.00062627 -1.07878e-20)
(-0.000489365 -0.00230162 5.95606e-21)
(-0.00139593 0.00147405 4.21849e-22)
(-0.00538014 -0.000676496 0)
(-0.0159001 0.00597545 0)
(-0.0257752 0.007844 0)
(-0.0282724 0.000492428 0)
(-0.00745364 -0.00058491 4.81293e-21)
(-0.0162942 -0.00291935 -4.11252e-21)
(-0.0185754 0.000574254 0)
(-0.00132115 0.00993907 0)
(-0.000409821 0.00166613 2.7225e-21)
(0.000580175 0.00166839 -6.82894e-21)
(0.000651863 0.00195465 1.18869e-20)
(0.000635503 0.00178195 -7.18398e-21)
(0.000874926 0.00122659 -2.33877e-21)
(0.000468795 0.000635638 0)
(-0.00314239 -8.8832e-05 3.51874e-21)
(-0.00669414 0.00129194 0)
(0.000156542 -0.00293464 0)
(-0.000223393 -0.00243946 0)
(0.000225395 -0.00302251 -1.29477e-21)
(-0.000778027 0.00109909 2.23582e-21)
(-0.00308815 0.000834678 0)
(-0.00238808 0.000434777 6.76851e-21)
(-0.00463284 0.000682401 1.79024e-21)
(-0.00598591 0.00148011 -6.75079e-21)
(0.00116037 0.00146336 0)
(0.000773536 0.00130194 5.27914e-21)
(0.00124128 0.00107038 8.56216e-21)
(0.00149015 0.00125017 -9.71163e-21)
(0.000673663 0.000345586 -1.74315e-22)
(0.00121945 0.00065574 7.2328e-21)
(0.00078213 -0.00231935 1.45299e-21)
(0.000204435 -0.00132589 -1.08956e-21)
(0.000750331 -0.00229657 -8.36624e-21)
(0.000954184 -0.00268611 1.14318e-20)
(0.00119872 -0.00254159 0)
(0.00133518 0.000953256 -5.358e-21)
(0.000533763 0.0008322 -7.84286e-21)
(0.00172024 -5.60909e-06 1.1628e-20)
(0.00158778 -0.00102096 0)
(0.00107277 -0.00147856 0)
(0.000583663 -0.000820101 4.46027e-21)
(0.00197108 0.000841822 3.35733e-21)
(0.00209813 0.000794881 -5.95497e-21)
(0.00144454 0.000458185 -1.30425e-22)
(0.00190987 0.000597483 1.78981e-24)
(0.00158027 -0.00134379 0)
(0.00195 -0.00163248 1.9505e-21)
(0.00220289 -0.00110395 -1.68504e-21)
(0.00255757 0.000271591 -4.16509e-24)
(0.00246087 -0.000551083 7.99863e-22)
(0.00247629 -0.00012049 6.32241e-21)
(0.000882621 -0.000391642 -5.91228e-21)
(0.00160534 -0.000761249 0)
(0.00201974 0.000251024 -8.83114e-21)
(0.00245045 0.000199228 4.21039e-21)
(0.00220588 -3.67624e-05 4.4837e-21)
(0.0018976 -0.000437606 0)
(0.00231387 -0.000458551 -4.91229e-21)
)
;

boundaryField
{
    movingWall
    {
        type            fixedValue;
        value           uniform (1 0 0);
    }
    fixedWalls
    {
        type            noSlip;
    }
    frontAndBack
    {
        type            empty;
    }
    defaultFaces
    {
        type            empty;
    }
}


// ************************************************************************* //
