/*--------------------------------*- C++ -*----------------------------------*\
  =========                 |
  \\      /  F ield         | OpenFOAM: The Open Source CFD Toolbox
   \\    /   O peration     | Website:  https://openfoam.org
    \\  /    A nd           | Version:  8
     \\/     M anipulation  |
\*---------------------------------------------------------------------------*/
FoamFile
{
    version     2.0;
    format      ascii;
    class       volScalarField;
    location    "0.086";
    object      p;
}
// * * * * * * * * * * * * * * * * * * * * * * * * * * * * * * * * * * * * * //

dimensions      [0 2 -2 0 0 0 0];

internalField   nonuniform List<scalar> 
424
(
-1.0683e-06
0.0549459
0.0135837
0.118134
0.0956796
0.247628
0.102427
0.0550564
0.277534
0.495546
0.479008
0.491893
0.0114819
-0.150468
0.508116
0.74981
0.508326
0.513995
-0.421985
-0.184042
0.749242
1.00249
0.672881
0.673598
-0.674178
-0.436592
-0.380991
-0.396403
0.988432
1.26993
1.476
1.53837
0.850207
0.848288
-3.52155
-0.889001
-1.11167
-1.3891
-0.676887
-0.412366
-0.417516
1.23578
1.42965
1.5256
1.41535
1.00686
1.0045
-2.88775
-2.65085
-0.887293
-1.12253
-1.18074
-0.576914
-0.578135
1.4328
1.47052
1.02533
1.02155
-2.26891
-1.12622
-0.759546
-0.757238
1.51791
1.67541
-1.05153
-0.62138
-0.946256
-0.945197
1.92539
1.70871
-0.0206567
-0.598826
-1.01222
-1.03643
2.1817
1.93778
1.89832
1.91154
0.728328
0.00852808
4.3759
2.40412
1.47386
2.10453
2.6824
5.2552
2.88579
2.61767
2.17948
1.94304
1.94878
0.733723
-0.386795
3.94779
2.39747
1.45939
2.0823
2.56929
4.53664
2.64153
2.62752
2.10508
2.10581
-0.162735
-0.412595
2.29277
2.29032
0.393144
-0.16311
2.4881
2.49279
0.97927
0.392576
2.57514
2.60595
1.56103
0.978238
1.82269
1.55617
1.84082
0.13097
0.040619
0.0477966
0.0788466
0.0946193
0.165944
-0.0272721
0.0103197
0.224521
0.318165
0.333388
0.151111
0.177737
0.219215
0.336168
0.303767
0.294939
0.445449
0.461673
0.446469
0.0655016
-0.000488399
0.0704096
0.0359254
-0.0162613
-0.0625751
-0.040207
-0.160884
-0.0822112
-0.189131
0.00097057
0.0449879
0.0690659
0.11393
0.30599
0.169845
0.363397
0.353394
0.490774
0.511377
0.584006
0.513451
0.599119
-0.0307934
-0.0330306
-0.185968
-0.202713
-0.23194
-0.267437
-0.271626
-0.048478
-0.281759
-0.0948385
-0.23347
0.64312
0.639071
0.751053
0.783364
0.679204
0.784471
-0.293672
-0.281601
-0.439138
-0.338934
-0.4015
-0.381387
-0.348944
0.885767
0.885158
0.985875
0.958338
1.05254
0.853809
0.943811
-0.546823
-0.67229
-0.50375
-0.554933
-0.419949
-0.51527
1.13597
1.15074
1.20721
1.21799
1.27456
1.2213
1.10959
1.18322
1.00481
1.08282
-0.788775
-0.883627
-0.696321
-0.776865
-0.583075
-0.70053
1.32539
1.30433
1.31731
1.35457
1.40206
1.38623
1.38255
1.38614
1.39078
1.49792
1.50042
1.44977
1.18467
1.27084
1.03845
1.18546
1.35378
1.38436
1.45394
-1.26539
-1.65517
-2.50195
-2.08795
-1.01827
-1.1173
-1.2315
-1.01888
-0.868085
-0.93537
-0.764237
-0.869981
-1.14724
-1.25485
1.50178
1.44761
1.45842
1.45282
1.51799
1.45795
1.46853
1.51758
1.5627
1.58836
1.68706
1.3404
1.43591
1.51167
1.49517
1.13831
1.26318
-1.48759
-1.41867
-1.63487
-1.23537
-1.08019
-1.10402
-1.14898
-1.00607
-1.0705
-0.942548
-1.01911
-0.854645
-1.19491
-1.10098
-1.07425
-1.11786
-1.22074
1.56628
1.62306
1.69908
1.55626
1.73552
1.73054
1.76243
1.78545
1.56426
1.77377
1.6119
1.7381
-0.817789
-0.723142
-0.941011
-0.594318
-0.698813
-0.564762
-1.09592
-1.10537
-0.746696
-0.756843
-1.0229
-1.12657
-1.0385
-1.07744
-1.24114
-1.17199
-1.05085
-0.753262
1.77594
1.78998
1.94085
1.86886
1.91346
1.88616
1.87285
-0.395459
-0.399229
0.0271721
-0.357061
-0.0567634
-0.411739
-0.344854
-1.40075
-1.31498
-1.0818
-1.21411
-1.15622
-1.51012
-1.48561
-1.19795
2.06705
2.18189
2.01576
2.06495
1.94687
2.03004
0.31138
0.738196
0.0737694
0.327589
-0.160594
0.145257
-1.13431
3.71447
4.06681
2.31328
2.39275
2.18871
2.31082
2.11145
2.20105
1.14675
1.45225
0.806044
1.13723
0.417351
0.79243
2.57848
3.13397
2.5337
2.62169
1.88887
2.07567
2.37381
2.73886
3.01106
2.74798
3.21761
2.65034
2.52465
2.4009
2.47263
2.29178
2.39322
1.90381
1.44095
1.52928
0.981565
1.35577
2.28351
2.92142
2.65902
2.62054
2.17946
2.20521
2.79793
2.68011
2.70141
2.67883
2.58137
2.59596
2.479
2.58926
1.79191
2.03816
1.56982
1.7724
2.39698
2.65507
2.62625
2.64325
2.15866
2.35993
2.76897
2.63488
2.67418
2.59413
2.66897
1.84545
2.12327
2.62704
2.97748
2.88876
2.53057
2.56605
3.09529
3.05862
2.63791
2.55885
)
;

boundaryField
{
    movingWall
    {
        type            zeroGradient;
    }
    fixedWalls
    {
        type            zeroGradient;
    }
    frontAndBack
    {
        type            empty;
    }
    defaultFaces
    {
        type            empty;
    }
}


// ************************************************************************* //
