/*--------------------------------*- C++ -*----------------------------------*\
  =========                 |
  \\      /  F ield         | OpenFOAM: The Open Source CFD Toolbox
   \\    /   O peration     | Website:  https://openfoam.org
    \\  /    A nd           | Version:  8
     \\/     M anipulation  |
\*---------------------------------------------------------------------------*/
FoamFile
{
    version     2.0;
    format      ascii;
    class       volVectorField;
    location    "0.086";
    object      U;
}
// * * * * * * * * * * * * * * * * * * * * * * * * * * * * * * * * * * * * * //

dimensions      [0 1 -1 0 0 0 0];

internalField   nonuniform List<vector> 
656
(
(0.743372 0.0565316 -9.65472e-25)
(0.927889 0.0140691 1.86666e-24)
(0.954788 -0.00127375 0)
(-0.091075 0.118994 2.40002e-23)
(0.556742 0.0977245 1.12098e-23)
(0.841242 0.000939744 0)
(-0.0571798 0.0672276 -4.93901e-23)
(-0.0145962 0.018846 9.85105e-24)
(0.968227 -0.000150839 0)
(-0.000504757 0.138601 -2.37829e-24)
(-0.00304964 0.193131 -7.83496e-23)
(-0.117738 0.172053 0)
(0.376006 0.139834 1.00526e-23)
(0.715019 0.00930684 0)
(0.890989 0.00127448 -1.70667e-22)
(0.906566 0.000583098 4.77898e-23)
(0.00104035 0.0823432 9.70496e-24)
(0.00137426 0.0267217 0)
(0.971852 -7.63389e-05 -3.43357e-23)
(0.913661 0.000298552 -1.43719e-22)
(-0.0123884 0.0928732 7.71105e-23)
(-0.00523409 0.0628721 0)
(-0.0239222 0.125115 1.33361e-24)
(-0.00789611 0.242543 1.53982e-22)
(-0.136115 0.223437 -1.67657e-22)
(0.210343 0.18042 -2.26587e-23)
(0.577674 0.0245875 0)
(0.8007 0.00637691 2.66449e-22)
(0.829494 0.0030322 -8.91623e-23)
(-0.00144234 0.0356645 0)
(-0.000151563 0.0114448 0)
(0.916986 0.000158358 5.13466e-23)
(0.973373 -4.6947e-05 -3.66607e-23)
(0.842959 0.0016174 1.95816e-22)
(0.849424 0.000810462 -5.18089e-23)
(0.85403 6.34845e-05 -1.08889e-22)
(-0.00677974 0.0608905 -1.05381e-22)
(-0.00280707 0.0409242 1.7071e-23)
(-0.0137926 0.0825098 -1.88325e-22)
(-0.0408483 0.158564 -1.577e-22)
(-0.01671 0.28282 1.66501e-22)
(-0.143742 0.269547 -4.77711e-24)
(0.0686489 0.217917 4.55154e-22)
(0.433182 0.0474137 0)
(0.696558 0.0162323 0)
(0.739381 0.00802645 -3.6982e-22)
(-0.000821629 0.0230279 -5.40253e-24)
(-0.000128818 0.00732299 0)
(0.854942 -0.000883154 1.20144e-22)
(0.919452 2.84527e-05 -2.78104e-23)
(0.974008 -2.02063e-05 4.92918e-24)
(0.759769 0.00435525 0)
(0.769764 0.00218544 0)
(0.776841 0.000151991 -1.06666e-22)
(0.778387 -0.00237206 4.59706e-22)
(0.763626 -0.00604319 0)
(-0.0103745 0.0366042 2.00131e-22)
(-0.00502145 0.0257397 2.95145e-22)
(-0.00202819 0.0165172 -2.87514e-22)
(-0.0250269 0.104803 -1.85263e-22)
(-0.0193443 0.0489368 5.84787e-22)
(0.28681 0.079672 -1.32799e-22)
(0.57847 0.0319868 1.75137e-22)
(0.6352 0.0165801 -5.20767e-22)
(-0.000553536 0.00884744 4.53702e-23)
(-6.70891e-05 0.0025618 6.0905e-23)
(0.84486 -0.00224244 -2.5466e-22)
(0.919999 -0.00014638 8.54502e-23)
(0.974687 1.29036e-05 5.47827e-24)
(0.726768 -0.0151979 -1.16792e-23)
(0.662692 0.00911914 0)
(0.676456 0.00466445 1.93316e-22)
(0.686385 0.000386357 2.04132e-22)
(0.688969 -0.00481307 -8.82331e-22)
(0.66971 -0.012543 2.27279e-22)
(-0.00839882 0.0139349 8.88421e-22)
(-0.00405365 0.00913813 -6.83449e-24)
(-0.00182771 0.00550515 0)
(-0.000643612 0.00295305 1.0577e-22)
(0.447786 0.055828 0)
(0.516951 0.0303681 6.66113e-22)
(-8.9448e-05 0.00127333 -1.00135e-22)
(5.53251e-05 0.000241392 -3.08628e-23)
(0.604785 -0.0240905 4.71813e-22)
(0.820259 -0.00592584 1.49694e-22)
(0.914484 -0.00037494 0)
(0.97503 4.19896e-05 -5.28356e-23)
(0.619972 -0.030231 -2.88771e-22)
(0.468208 -0.0472382 7.26193e-22)
(0.251479 -0.190757 -8.79081e-22)
(0.550825 0.0170802 0)
(0.56815 0.00874859 4.66271e-23)
(0.581238 0.000992443 -1.45194e-22)
(0.585538 -0.00871517 5.11886e-22)
(0.562578 -0.0231807 -8.69611e-22)
(-0.0147912 0.0062642 3.73776e-22)
(-0.00924717 0.00306671 -3.98854e-22)
(-0.00537225 0.00139791 -1.97735e-22)
(-0.00279647 0.000480316 3.91349e-22)
(-0.00116584 4.38416e-05 4.713e-23)
(-0.00020319 -6.20621e-05 -2.84976e-23)
(-0.136728 -0.250241 5.90066e-23)
(0.411944 -0.147966 -6.13836e-23)
(0.732778 -0.00901639 -7.95846e-22)
(0.901186 -0.00112448 0)
(0.973746 0.000109573 0)
(0.49972 -0.0539484 5.52146e-22)
(0.325512 -0.0810143 -2.7733e-22)
(0.106282 -0.230036 1.02582e-22)
(-0.141409 -0.298198 1.38428e-21)
(-0.0465804 0.0112551 0)
(-0.034021 0.00583954 1.86863e-22)
(-0.0235914 0.00285793 -6.59977e-22)
(-0.0149878 0.00114531 1.84041e-22)
(-0.00792712 0.000287613 -4.38527e-23)
(-0.00212803 2.1792e-05 -2.72268e-23)
(-0.00754395 -0.28903 0)
(-0.120665 -0.194926 0)
(0.582914 -0.103403 4.88166e-22)
(0.850386 -0.000878692 -3.99584e-23)
(0.970606 0.000203289 -1.0304e-22)
(-0.0155571 -0.332919 -1.64648e-21)
(-0.0760016 0.0100105 0)
(-0.0568624 0.00552752 1.9315e-22)
(-0.0403702 0.00276358 -1.41145e-24)
(-0.0262671 0.00117178 9.54887e-23)
(-0.0142712 0.00036038 -4.48734e-23)
(-0.00411641 7.18026e-05 0)
(-0.0276219 -0.164274 -5.51166e-22)
(-0.00296277 -0.233228 0)
(-0.094997 -0.136206 5.08316e-22)
(0.75789 -0.0597746 0)
(0.956554 0.00135216 7.64116e-23)
(-0.046678 -0.205095 0)
(-0.0980845 0.00828972 0)
(-0.0741665 0.00460896 1.20078e-22)
(-0.0531752 0.00234378 -3.48152e-22)
(-0.0349417 0.0010281 1.12646e-22)
(-0.0192397 0.000345412 5.03484e-23)
(-0.00578431 8.89847e-05 -1.68739e-23)
(-0.015655 -0.119026 2.82625e-22)
(-0.0145372 -0.123352 0)
(-0.000248188 -0.169217 -4.45518e-22)
(-0.0605237 -0.0776122 4.30418e-22)
(0.931395 -0.0147218 0)
(-0.0284336 -0.148593 0)
(-0.107004 0.00724202 1.53155e-22)
(-0.0810005 0.00408763 -1.47862e-22)
(-0.0581644 0.00207794 1.43073e-22)
(-0.038291 0.000905983 -2.73888e-22)
(-0.0211551 0.000304642 3.76655e-22)
(-0.00650421 7.8617e-05 -5.02185e-23)
(-0.0133573 -0.0678597 2.43769e-22)
(-0.0077182 -0.0890978 -5.22016e-22)
(-0.00596347 -0.0840662 1.52074e-22)
(0.00181256 -0.100771 -4.6198e-22)
(-0.014189 -0.0214027 1.30993e-23)
(-0.0241149 -0.0868521 0)
(-0.0154614 -0.0452155 -5.49846e-23)
(-0.107963 0.00780876 -1.88582e-22)
(-0.0816239 0.00492883 7.6012e-22)
(-0.0586938 0.00264436 -7.25765e-22)
(-0.0387753 0.0011399 0)
(-0.0215134 0.000351539 0)
(-0.00671225 7.2736e-05 -5.509e-24)
(-0.00849431 -0.0350817 1.17253e-22)
(-0.00666783 -0.0497929 3.44443e-24)
(-0.00302973 -0.0605431 3.97954e-22)
(-0.00125803 -0.0475666 -1.49542e-22)
(0.00233743 -0.0310267 0)
(-0.00873839 -0.0196305 8.91156e-22)
(-0.0632759 0.00409143 8.29102e-22)
(-0.0414411 0.00257068 -8.57306e-22)
(-0.0227753 0.000908316 0)
(-0.00700817 0.000157903 -7.76626e-24)
(-0.00480653 -0.014629 -2.36315e-22)
(-0.00418798 -0.0254849 -9.16753e-23)
(-0.00273023 -0.033293 1.89004e-22)
(-0.000643014 -0.0342509 -1.29325e-22)
(0.000182381 -0.014365 4.94292e-23)
(-0.00447437 -0.00526432 0)
(-0.00270595 0.00320076 -1.02406e-21)
(-0.050527 0.00118004 0)
(-0.0176844 0.000393813 -2.71407e-23)
(-0.00152199 0.000804103 0)
(-0.00238145 -0.00358806 -2.4056e-22)
(-0.00234512 -0.0102338 -4.59275e-22)
(-0.00172134 -0.016863 -6.24875e-23)
(-0.000724382 -0.0186274 1.27155e-22)
(7.65237e-05 -0.0106534 -4.96195e-23)
(-0.00108017 -0.000901966 2.08811e-21)
(-0.00130622 0.00154784 2.17906e-21)
(-0.00310778 0.00369369 7.0207e-23)
(-0.000132296 0.00198927 -4.81421e-22)
(-0.000749118 0.00104823 -9.82469e-25)
(-0.00111837 -0.00225128 1.24587e-22)
(-0.000958356 -0.00653674 3.71986e-22)
(-0.000484002 -0.0093515 7.62148e-24)
(-6.56823e-05 -0.00583929 -2.27909e-23)
(-0.000147369 -0.00257538 -1.88359e-24)
(-0.000453278 -0.00141138 -1.74693e-21)
(-0.000547669 0.000678823 -5.26919e-22)
(-0.00136138 0.00157872 0)
(-0.0031937 0.00914386 1.51722e-21)
(0.000389184 0.0015099 -2.58748e-22)
(-4.00843e-06 0.00176485 2.56504e-22)
(-0.00031448 0.00105882 1.28438e-22)
(-0.000440207 -0.00126604 0)
(-0.000272122 -0.00350605 -1.2192e-22)
(-6.47744e-05 -0.00293402 1.71268e-23)
(0.000229814 -0.00282398 8.27434e-22)
(1.30049e-05 -0.0024183 3.33751e-22)
(-0.000162172 -0.0014622 1.96694e-22)
(-0.000173906 0.000193243 5.36032e-23)
(-0.000334936 0.000545799 -6.14604e-23)
(-0.000459809 0.00212024 1.0924e-21)
(0.000310219 0.000534729 1.08136e-21)
(0.000248372 0.00126924 -4.0476e-22)
(2.98062e-05 0.00143261 -2.63975e-22)
(-0.000107174 0.000883803 -1.28486e-22)
(-0.000115841 -0.000584141 0)
(-3.96757e-05 -0.00106222 -1.12742e-23)
(0.000527975 -0.00205853 0)
(0.00018502 -0.00240436 -2.86303e-22)
(4.71932e-05 -0.00200877 -9.86502e-22)
(-3.76981e-05 -0.00121449 3.2149e-22)
(-2.21838e-05 -2.84178e-05 -3.58209e-22)
(-1.2499e-05 1.19432e-05 9.65592e-24)
(0.000532021 0.00019204 -4.69797e-22)
(0.000171502 0.000398894 7.16204e-22)
(0.000139506 0.000980621 -6.92981e-22)
(2.76348e-05 0.00103597 1.32346e-22)
(-1.72676e-05 0.000583918 0)
(-1.1001e-05 -0.000141968 1.11475e-23)
(0.000388885 -0.000698744 0)
(0.000316779 -0.00169612 5.50365e-22)
(0.000115031 -0.0018752 7.1644e-22)
(3.7818e-05 -0.00146579 9.39678e-22)
(8.23704e-06 -0.000791207 -3.33799e-22)
(9.77957e-06 -5.50557e-05 -2.20474e-23)
(0.00120532 0.000277286 -5.60812e-22)
(0.000378387 0.000104421 0)
(8.37014e-05 0.000273286 5.14328e-22)
(6.48656e-05 0.000678624 0)
(1.68359e-05 0.000614473 0)
(6.2273e-06 0.000211516 0)
(0.000718655 -0.000234841 6.27186e-22)
(0.000209871 -0.000524497 -5.69271e-22)
(0.000168855 -0.0012876 -5.60027e-22)
(5.82723e-05 -0.00130844 -4.18078e-22)
(2.38481e-05 -0.000872098 -4.34759e-22)
(1.31872e-05 -0.00027933 1.31222e-23)
(0.00168583 0.000145645 0)
(0.000961154 0.000159171 1.40554e-22)
(0.000249757 5.1548e-05 0)
(3.23371e-05 0.00016727 1.98722e-27)
(2.1968e-05 0.000385198 0)
(8.67129e-06 0.000196645 -8.98034e-23)
(0.00183404 -2.67016e-05 0)
(0.00156405 -0.000258238 -5.66059e-22)
(0.000522148 -0.000131913 -1.57989e-22)
(9.94213e-05 -0.000360094 2.91849e-22)
(7.56645e-05 -0.000877386 -4.14964e-22)
(2.45361e-05 -0.00075002 -1.31463e-22)
(1.22926e-05 -0.000280618 9.15685e-23)
(0.00135334 8.23524e-05 -1.88764e-23)
(0.000715446 8.24699e-05 -2.10202e-22)
(0.000149271 2.00336e-05 0)
(6.31695e-06 8.30063e-05 -1.0821e-22)
(5.51675e-06 0.000112633 9.05925e-23)
(0.00147057 -1.80397e-05 2.09892e-24)
(0.00124717 -0.000151867 6.35707e-22)
(0.000352509 -6.60323e-05 -4.72298e-27)
(3.77759e-05 -0.000221148 1.34924e-25)
(2.4615e-05 -0.000490496 -2.65275e-22)
(9.4981e-06 -0.000226831 8.36337e-23)
(0.00101769 4.25563e-05 1.4857e-22)
(0.00048313 3.63759e-05 1.02542e-22)
(7.34138e-05 3.85826e-06 -1.26143e-22)
(-1.2212e-06 1.91382e-05 2.30053e-23)
(0.00110578 -1.07238e-05 2.0944e-24)
(0.000931193 -8.12725e-05 -1.40607e-22)
(0.000215832 -2.61356e-05 4.54169e-22)
(7.22474e-06 -0.000110366 -2.12769e-22)
(6.01104e-06 -0.000139081 3.40357e-26)
(0.000696063 1.89739e-05 0)
(0.000271365 1.1982e-05 1.13807e-22)
(1.73667e-05 -1.10275e-06 7.96668e-23)
(0.00075683 -5.78795e-06 0)
(0.000631484 -3.70956e-05 -2.057e-22)
(0.000108919 -5.34232e-06 3.95909e-22)
(-1.46363e-06 -2.55793e-05 4.39588e-23)
(0.000398297 6.50624e-06 -9.70975e-25)
(8.26755e-05 2.82872e-06 -1.43009e-22)
(0.000433594 -2.79657e-06 9.69712e-25)
(0.000356513 -1.29648e-05 -1.14033e-22)
(2.67337e-05 1.18693e-06 1.12934e-22)
(0.000128963 1.65475e-06 4.33797e-23)
(0.000140672 -1.23309e-06 0)
(0.000109494 -3.58818e-06 -1.09967e-23)
(-0.142805 0.304015 2.22384e-21)
(-0.0269627 0.258916 5.09922e-22)
(-0.0419225 0.128297 0)
(-0.0753956 0.189539 2.78623e-21)
(-0.0629118 0.19421 -2.94436e-21)
(-0.073022 0.268242 0)
(-0.0373496 0.311078 0)
(-0.0980452 0.353175 -1.02569e-21)
(-0.0849302 0.314173 0)
(-0.0388409 0.266567 -1.88531e-21)
(0.152159 0.126701 4.23773e-21)
(-0.0955074 0.278837 0)
(-0.03381 0.0636955 -3.65697e-22)
(-0.0560702 0.10525 0)
(-0.0162072 0.0192656 -3.81809e-21)
(-0.0385987 0.0469829 3.90722e-21)
(-0.0831657 0.121715 -2.27027e-21)
(-0.114796 0.159415 0)
(-0.0954014 0.203483 0)
(-0.119101 0.24024 6.18362e-22)
(-0.10878 0.295516 0)
(-0.0974964 0.289536 1.95869e-21)
(-0.0152742 0.19448 2.36968e-21)
(0.0946772 0.155501 -5.71835e-21)
(0.302808 0.0912267 1.1234e-21)
(-0.149953 0.235269 -5.90024e-22)
(-0.140543 0.252469 0)
(-0.0215698 0.0120702 -3.15874e-21)
(-0.0491874 0.0286521 8.65326e-22)
(-0.0607813 0.0521561 7.20346e-22)
(-0.0913819 0.081873 2.30837e-21)
(-0.121538 0.0806729 -4.44499e-21)
(-0.167505 0.115469 -3.93327e-21)
(-0.159415 0.156947 -3.00645e-21)
(-0.184491 0.185495 5.63124e-21)
(-0.130934 0.208746 -1.64175e-21)
(-0.0600027 0.184083 -1.71406e-21)
(0.043309 0.128478 0)
(0.387487 0.0504156 -5.74685e-21)
(0.190368 0.106436 0)
(0.423924 0.0298134 0)
(0.243698 0.0593229 4.83684e-21)
(-0.20681 0.17288 0)
(-0.178849 0.17987 0)
(-0.0108475 -0.277365 6.03709e-21)
(-0.146114 -0.33037 0)
(0.386542 -0.0835112 0)
(0.436601 0.0148334 -1.97023e-22)
(0.273595 0.0341747 0)
(0.269519 -0.0944407 0)
(0.456528 -0.0376441 1.1832e-21)
(0.458426 0.00179127 3.69632e-21)
(0.296577 0.00855234 0)
(0.320018 -0.0442476 0)
(0.473852 -0.015263 0)
(0.325093 -0.0149195 -3.75314e-21)
(-0.063956 0.0225517 1.14952e-21)
(-0.0974188 0.0360227 -1.44531e-21)
(-0.120521 0.0485927 4.75467e-21)
(-0.173508 0.0548066 0)
(-0.202303 0.0851149 0)
(-0.231692 0.0954731 -3.1048e-21)
(-0.249597 0.120085 -2.36309e-21)
(-0.152318 0.139203 0)
(0.0674789 0.0804184 3.34717e-21)
(-0.0352856 0.118035 0)
(0.151947 0.0435651 0)
(0.00479555 0.0682067 -3.61974e-21)
(-0.267032 0.10639 7.84727e-21)
(-0.228673 0.113313 -2.31886e-21)
(-0.0112102 -0.264236 -3.40716e-21)
(0.172353 -0.13773 7.67052e-21)
(0.147213 -0.156983 -6.00212e-21)
(-0.114827 -0.387007 1.70474e-21)
(-0.0771436 -0.329037 -3.71048e-21)
(-0.0361742 -0.360386 2.43751e-22)
(0.0477255 -0.183754 -6.36435e-21)
(0.0511335 -0.153933 2.08615e-21)
(0.149728 -0.110152 3.22715e-21)
(0.134001 0.0100565 0)
(0.0258875 0.0381266 0)
(0.0865119 -0.0943339 -3.55657e-21)
(0.189488 -0.057268 0)
(0.101094 -0.0463002 -3.31618e-21)
(0.200535 -0.0211014 3.02412e-21)
(0.0615337 -0.00977563 4.60934e-21)
(-0.0973007 0.0161602 1.65292e-21)
(-0.141108 0.0248623 0)
(-0.16821 0.0343268 0)
(-0.213582 0.0401076 3.28341e-21)
(-0.245118 0.0588373 0)
(-0.274295 0.0598905 8.26241e-21)
(-0.294492 0.0759769 -7.06126e-21)
(-0.108258 0.0542697 0)
(-0.132026 0.0690192 -5.67658e-21)
(-0.222719 0.0874077 1.15629e-20)
(-0.195123 0.0400568 0)
(-0.292501 0.0752961 -7.47358e-21)
(-0.306171 0.0691397 -3.98623e-21)
(-0.0856978 -0.315048 0)
(-0.0705404 -0.248576 7.72744e-21)
(-0.0719276 -0.243754 0)
(-0.0639327 -0.323048 -5.27585e-22)
(-0.0899595 -0.326034 4.14361e-22)
(-0.102163 -0.24242 -7.93624e-21)
(-0.0603407 -0.188506 -7.29073e-21)
(-0.0903623 -0.16264 9.69495e-21)
(-0.0371785 -0.116157 2.98966e-21)
(-0.103645 -0.0834651 -3.91714e-21)
(-0.0500334 -0.0527866 0)
(-0.0772221 -0.017874 -3.18619e-21)
(-0.172127 0.0108952 0)
(-0.123471 0.013184 0)
(-0.167779 0.0198121 -1.28101e-21)
(-0.198093 0.0256509 -5.0198e-21)
(-0.232519 0.0320185 4.30489e-21)
(-0.261245 0.0426984 -1.53211e-21)
(-0.279705 0.0448639 -1.96661e-21)
(-0.30751 0.0567932 6.22748e-21)
(-0.277592 0.0468799 -6.94644e-21)
(-0.30105 0.061951 8.46947e-21)
(-0.264018 0.015525 0)
(-0.298747 0.0397582 -1.19023e-21)
(-0.321165 0.0618817 0)
(-0.314359 0.0565649 0)
(-0.0467887 -0.174294 -1.23693e-20)
(-0.0894349 -0.248996 4.26681e-21)
(-0.109881 -0.258993 5.15499e-21)
(-0.121753 -0.288643 -7.1046e-22)
(-0.137727 -0.259307 6.55441e-22)
(-0.172233 -0.210028 -7.46635e-21)
(-0.174969 -0.170585 0)
(-0.195619 -0.112957 -9.32942e-21)
(-0.281275 0.0178934 -4.39168e-21)
(-0.237522 -0.0819598 6.78736e-21)
(-0.273983 -0.0184058 2.80128e-21)
(-0.135494 0.0115883 4.51752e-21)
(-0.294666 0.0530477 2.69733e-21)
(-0.173484 0.0179236 -3.22747e-21)
(-0.198935 0.0232816 -2.79434e-21)
(-0.226294 0.0312879 -6.05196e-21)
(-0.261505 0.0397387 1.35422e-21)
(-0.270896 0.0439429 -3.43183e-21)
(-0.294275 0.0460217 -2.6992e-21)
(-0.318236 0.0607699 6.72779e-22)
(-0.313224 0.0515523 1.23265e-21)
(-0.274836 0.0591623 4.81691e-21)
(-0.29115 0.0568429 1.99652e-21)
(-0.301954 0.0645227 -1.27921e-21)
(-0.294117 0.0611466 -1.91856e-21)
(-0.24241 0.0645915 -6.67711e-21)
(-0.0389571 -0.105084 0)
(-0.0625012 -0.165988 8.27744e-21)
(-0.18307 0.0661247 0)
(-0.22145 0.0555634 4.37741e-21)
(-0.120775 0.0615385 8.4773e-21)
(-0.146574 0.0581707 -5.59777e-21)
(-0.0860443 -0.181447 0)
(-0.125148 -0.221311 -4.90037e-21)
(-0.162279 -0.198659 1.5002e-20)
(-0.219427 0.0286131 -5.83721e-21)
(-0.245521 0.00874448 4.6204e-21)
(-0.179571 -0.157309 -1.06991e-20)
(-0.23049 -0.0769399 1.13788e-22)
(-0.222384 -0.0475243 -9.42586e-21)
(-0.135738 0.0117711 0)
(-0.266243 0.0527988 0)
(-0.24517 0.0395965 2.5967e-22)
(-0.250754 0.0463439 -3.54415e-22)
(-0.169207 0.0200993 -5.02248e-21)
(-0.197276 0.0263321 5.34141e-21)
(-0.215699 0.0314417 4.63401e-21)
(-0.284837 0.0701699 1.83082e-21)
(-0.276871 0.0697503 -4.16907e-22)
(-0.247387 0.0774311 3.63316e-21)
(-0.22823 0.076481 1.32583e-21)
(-0.259226 0.0572871 -5.47572e-21)
(-0.264834 0.0719001 1.99901e-23)
(-0.271599 0.0638688 4.67546e-21)
(-0.201414 0.0821152 2.29948e-21)
(-0.176503 0.0804291 -7.50234e-21)
(-0.119855 0.0731967 2.8829e-21)
(-0.145061 0.0806244 2.3815e-21)
(-0.0957077 0.0709172 -3.36804e-21)
(-0.0575643 0.0524447 0)
(-0.0759393 0.0589804 2.79832e-21)
(-0.0918692 0.054753 -2.40034e-22)
(-0.083426 0.0470386 0)
(-0.0249322 -0.0547209 -4.19627e-21)
(-0.0490757 -0.0950146 4.10557e-21)
(-0.0595061 -0.10259 2.88711e-21)
(-0.0951225 -0.138296 0)
(-0.107706 0.0317535 1.0204e-20)
(-0.141139 0.034229 0)
(-0.168898 0.0188887 5.66236e-21)
(-0.121306 -0.116501 1.30633e-22)
(-0.152641 -0.026825 1.53358e-21)
(-0.151435 -0.124328 -4.2194e-21)
(-0.179979 -0.0561361 8.46574e-21)
(-0.013953 -0.0251667 -4.96204e-22)
(-0.0255731 -0.0430856 0)
(-0.126002 0.0107816 0)
(-0.0850565 0.00384003 -5.14552e-22)
(-0.102855 0.0050278 5.18698e-22)
(-0.223805 0.044177 -3.00818e-21)
(-0.234482 0.0542632 2.64529e-21)
(-0.150075 0.016604 0)
(-0.184905 0.0256338 -2.45617e-21)
(-0.201142 0.0351552 2.95873e-21)
(-0.199206 0.0864333 1.24116e-21)
(-0.239281 0.0767402 -2.0177e-21)
(-0.232763 0.0817408 -2.56042e-21)
(-0.21873 0.0602203 -3.409e-21)
(-0.219072 0.071645 6.75998e-22)
(-0.176341 0.0843031 0)
(-0.148086 0.084388 0)
(-0.134584 0.0828137 0)
(-0.107079 0.0793826 -2.97557e-21)
(-0.087487 0.0727882 -1.67582e-21)
(-0.0674377 0.0661604 3.98957e-21)
(-0.0505245 0.0542434 0)
(-0.0078083 0.0145311 0)
(-0.00500034 0.00961316 -6.67878e-22)
(-0.0142647 0.0259839 3.59746e-21)
(-0.0228609 0.0350533 -3.1536e-21)
(-0.0363443 0.0471466 0)
(-0.025868 0.0329086 -5.85684e-21)
(-0.0393739 0.0403145 3.75493e-23)
(-0.0107525 0.0154356 0)
(-0.0146977 0.0201789 -4.59986e-21)
(-0.00493243 0.0058726 0)
(-0.0416693 0.0354739 1.35511e-23)
(-0.0597462 0.0401232 2.05763e-23)
(-0.0589261 0.0304364 3.55591e-21)
(-0.0924784 0.0259528 -4.32545e-21)
(-0.0363805 -0.0479459 8.81291e-21)
(-0.0604571 -0.0669818 -1.85481e-20)
(-0.0882033 -0.0672161 3.95111e-21)
(-0.0877731 0.00901549 -2.28004e-21)
(-0.0965983 -0.0379666 8.37686e-21)
(-0.117175 -0.0226112 -5.88531e-21)
(-0.00689986 -0.00708578 0)
(-0.0130814 -0.0154602 0)
(-0.0161969 -0.0167649 -3.64655e-21)
(-0.0323223 -0.0283292 -5.33373e-21)
(-0.0042147 0.00680744 5.65155e-22)
(-0.117802 0.0104124 1.25358e-21)
(-0.0697787 0.000824246 0)
(-0.0874983 0.00282382 -1.09678e-21)
(-0.146697 0.0292959 1.49046e-21)
(-0.173553 0.037534 -4.45781e-21)
(-0.189329 0.0550474 -8.10653e-23)
(-0.162313 0.0678486 4.04891e-21)
(-0.181564 0.0761247 -4.75263e-21)
(-0.169061 0.0815059 3.23332e-21)
(-0.0990746 0.0791444 -3.93071e-21)
(-0.12848 0.0781564 6.07468e-23)
(-0.125916 0.0828394 1.11158e-21)
(-0.0371316 0.053145 4.04606e-21)
(-0.0566211 0.0645341 -4.42155e-23)
(-0.0786198 0.0718119 1.95872e-21)
(-0.0111592 0.0273602 1.76765e-21)
(-0.0273563 0.0448932 -2.14114e-21)
(-0.00631028 0.0177602 -1.5888e-21)
(-0.0165696 0.0185398 5.23523e-21)
(-0.026207 0.0239905 0)
(-0.00504071 0.00498515 4.11264e-21)
(-0.00739798 0.00750756 -7.26837e-21)
(-0.00222756 0.00033453 0)
(-0.0022239 0.000331406 0)
(-0.00450567 -0.00215489 -1.1554e-21)
(-0.0267816 0.0194257 5.2423e-21)
(-0.0413375 0.0217618 -1.58189e-23)
(-0.0412674 0.0142466 -1.0782e-20)
(-0.0632495 0.00757494 1.0884e-20)
(-0.0389578 -0.0179352 3.80771e-21)
(-0.0543267 -0.0178039 -3.09013e-21)
(-0.0479344 -0.00261611 -3.8081e-21)
(-0.00654757 -0.00306611 7.17178e-22)
(-0.013097 -0.00712732 2.03319e-21)
(-0.0214445 -0.00661953 1.40881e-21)
(-0.00507084 0.0134525 -3.05321e-21)
(-0.0292681 0.0495624 0)
(-0.0616461 0.0639638 0)
(-0.0931556 0.0360264 3.94697e-21)
(-0.108839 0.0553764 -2.76841e-21)
(-0.101074 0.0672058 0)
(-0.0222628 0.00259978 3.06212e-23)
(-0.0626332 0.0148128 0)
(-0.0100258 0.0309583 -1.03652e-22)
(-0.000829164 0.00176144 -6.08664e-22)
(-0.000217458 0.00204865 2.99376e-21)
(-0.00929475 0.0068721 7.49977e-21)
(-0.014709 0.0105711 0)
(-0.0015421 -0.000792441 -3.39872e-21)
(-0.00344535 0.000626236 -1.07878e-20)
(-0.000489289 -0.00230149 5.95605e-21)
(-0.00139584 0.00147385 4.21849e-22)
(-0.00537977 -0.000676538 0)
(-0.0158992 0.00597519 0)
(-0.0257738 0.00784366 0)
(-0.0282709 0.000492469 0)
(-0.00745312 -0.000584934 4.81293e-21)
(-0.0162932 -0.00291917 -4.11252e-21)
(-0.0185743 0.000574305 0)
(-0.00132111 0.00993877 0)
(-0.000409796 0.0016659 2.7225e-21)
(0.000580114 0.00166819 -6.82893e-21)
(0.000651797 0.00195441 1.18869e-20)
(0.000635436 0.00178172 -7.18397e-21)
(0.000874827 0.00122644 -2.33877e-21)
(0.000468743 0.000635561 0)
(-0.00314209 -8.87632e-05 3.51874e-21)
(-0.00669362 0.00129195 0)
(0.000156574 -0.00293439 0)
(-0.000223324 -0.00243923 0)
(0.000225408 -0.00302227 -1.29477e-21)
(-0.000777962 0.00109892 2.23582e-21)
(-0.0030879 0.000834573 0)
(-0.00238786 0.000434765 6.76851e-21)
(-0.00463244 0.000682467 1.79024e-21)
(-0.00598542 0.00148012 -6.75078e-21)
(0.00116024 0.00146317 0)
(0.000773441 0.00130177 5.27914e-21)
(0.00124113 0.00107024 8.56215e-21)
(0.00148997 0.00125 -9.71163e-21)
(0.000673586 0.000345542 -1.74315e-22)
(0.0012193 0.000655656 7.23279e-21)
(0.000782111 -0.00231909 1.45299e-21)
(0.000204458 -0.00132568 -1.08956e-21)
(0.000750276 -0.00229635 -8.36623e-21)
(0.000954118 -0.00268584 1.14318e-20)
(0.00119864 -0.00254132 0)
(0.00133502 0.000953158 -5.358e-21)
(0.000533707 0.000832166 -7.84286e-21)
(0.00172007 -5.55704e-06 1.1628e-20)
(0.00158765 -0.0010208 0)
(0.00107268 -0.00147841 0)
(0.00058361 -0.000820016 4.46027e-21)
(0.00197084 0.000841719 3.35733e-21)
(0.00209787 0.000794797 -5.95496e-21)
(0.00144437 0.000458127 -1.30425e-22)
(0.00190964 0.000597411 1.7897e-24)
(0.00158012 -0.00134364 0)
(0.00194982 -0.00163229 1.9505e-21)
(0.00220268 -0.0011038 -1.68503e-21)
(0.00255727 0.000271574 -4.16483e-24)
(0.00246061 -0.000550998 7.99863e-22)
(0.00247601 -0.000120449 6.32241e-21)
(0.000882535 -0.000391597 -5.91228e-21)
(0.00160518 -0.00076116 0)
(0.0020195 0.000250997 -8.83113e-21)
(0.00245015 0.000199215 4.21039e-21)
(0.00220562 -3.67495e-05 4.4837e-21)
(0.0018974 -0.000437548 0)
(0.00231362 -0.000458483 -4.91229e-21)
)
;

boundaryField
{
    movingWall
    {
        type            fixedValue;
        value           uniform (1 0 0);
    }
    fixedWalls
    {
        type            noSlip;
    }
    frontAndBack
    {
        type            empty;
    }
    defaultFaces
    {
        type            empty;
    }
}


// ************************************************************************* //
