/*--------------------------------*- C++ -*----------------------------------*\
  =========                 |
  \\      /  F ield         | OpenFOAM: The Open Source CFD Toolbox
   \\    /   O peration     | Website:  https://openfoam.org
    \\  /    A nd           | Version:  8
     \\/     M anipulation  |
\*---------------------------------------------------------------------------*/
FoamFile
{
    version     2.0;
    format      ascii;
    class       volScalarField;
    location    "0.052";
    object      p;
}
// * * * * * * * * * * * * * * * * * * * * * * * * * * * * * * * * * * * * * //

dimensions      [0 2 -2 0 0 0 0];

internalField   nonuniform List<scalar> 
424
(
-6.79784e-07
0.0549652
0.0135838
0.118081
0.0956899
0.24763
0.102376
0.0549857
0.277532
0.495534
0.478933
0.491814
0.0114208
-0.150513
0.508103
0.749796
0.508299
0.513966
-0.422001
-0.184083
0.749227
1.00248
0.672862
0.673578
-0.674194
-0.436608
-0.380942
-0.396349
0.988417
1.26989
1.47593
1.53832
0.850198
0.848279
-3.52156
-0.889016
-1.11167
-1.38907
-0.676903
-0.412367
-0.417515
1.23574
1.4296
1.52555
1.41536
1.00686
1.0045
-2.88775
-2.65092
-0.887307
-1.12253
-1.18072
-0.576923
-0.578144
1.43281
1.47055
1.02538
1.0216
-2.26897
-1.12631
-0.759568
-0.75726
1.51792
1.67542
-1.0516
-0.621432
-0.94629
-0.945234
1.92538
1.70871
-0.020683
-0.598871
-1.0123
-1.03651
2.18168
1.93777
1.89825
1.91146
0.7283
0.0085011
4.37589
2.4041
1.47383
2.10453
2.68241
5.25514
2.88572
2.61762
2.17946
1.94301
1.94875
0.733696
-0.386767
3.94778
2.39745
1.45937
2.08229
2.56929
4.53658
2.64147
2.62748
2.10506
2.1058
-0.162745
-0.412567
2.29276
2.29031
0.393125
-0.16312
2.48809
2.49279
0.979239
0.392556
2.57518
2.60599
1.56099
0.978207
1.82259
1.55612
1.84072
0.130961
0.0406061
0.0477975
0.0788057
0.0945925
0.165929
-0.0272833
0.0103178
0.224494
0.318125
0.33335
0.151112
0.177716
0.219189
0.336139
0.303748
0.294927
0.445413
0.461605
0.446437
0.0654543
-0.000490704
0.0703809
0.0359196
-0.016288
-0.0625832
-0.0402365
-0.16088
-0.0822124
-0.189117
0.000942589
0.0449834
0.0690826
0.113947
0.305937
0.169846
0.363387
0.353386
0.490735
0.511363
0.58398
0.513422
0.599096
-0.0308468
-0.0330775
-0.18597
-0.202744
-0.231952
-0.267415
-0.271628
-0.0484972
-0.281735
-0.094843
-0.233418
0.643101
0.639055
0.751039
0.783351
0.679184
0.784457
-0.293691
-0.281623
-0.439152
-0.338935
-0.401493
-0.381339
-0.348945
0.885758
0.885151
0.985863
0.95834
1.05254
0.8538
0.943812
-0.546832
-0.672306
-0.503749
-0.554941
-0.419947
-0.515272
1.13595
1.15072
1.2072
1.21796
1.27455
1.2213
1.1096
1.18322
1.00482
1.08283
-0.788798
-0.883644
-0.696335
-0.77689
-0.583083
-0.700545
1.32539
1.30432
1.31731
1.35458
1.40202
1.38617
1.3825
1.38613
1.39077
1.49787
1.50038
1.44977
1.18469
1.27086
1.0385
1.18548
1.35379
1.38437
1.45394
-1.2654
-1.65517
-2.50197
-2.08801
-1.01828
-1.11731
-1.2315
-1.01888
-0.868123
-0.935415
-0.764259
-0.870013
-1.14725
-1.25488
1.50177
1.4476
1.45841
1.45281
1.51796
1.45793
1.46853
1.51759
1.56269
1.58835
1.68703
1.3404
1.43589
1.51169
1.49516
1.13838
1.26321
-1.48762
-1.4187
-1.63494
-1.23536
-1.08024
-1.10405
-1.14901
-1.00612
-1.07053
-0.942582
-1.01916
-0.854669
-1.19493
-1.10099
-1.07425
-1.11788
-1.22078
1.56627
1.62304
1.69905
1.55626
1.7355
1.73052
1.76239
1.78541
1.56427
1.77373
1.6119
1.73805
-0.817867
-0.723176
-0.941078
-0.594348
-0.698817
-0.564767
-1.09597
-1.1054
-0.746695
-0.756848
-1.02298
-1.12662
-1.03851
-1.07745
-1.24117
-1.17201
-1.05089
-0.753277
1.77593
1.78997
1.94083
1.86883
1.91342
1.88609
1.87282
-0.395489
-0.399255
0.0271493
-0.357071
-0.0567836
-0.411722
-0.344869
-1.40076
-1.31497
-1.08185
-1.21416
-1.15627
-1.5102
-1.48565
-1.19797
2.06704
2.18188
2.01573
2.06494
1.94684
2.03001
0.311362
0.738167
0.0737647
0.327561
-0.160599
0.145242
-1.13428
3.71444
4.06676
2.31327
2.39274
2.1887
2.31081
2.11143
2.20104
1.14671
1.45222
0.806019
1.1372
0.417331
0.792406
2.57845
3.13396
2.5337
2.62165
1.88885
2.07565
2.3738
2.73882
3.01103
2.74796
3.21757
2.65029
2.52461
2.40089
2.47263
2.29177
2.39321
1.9038
1.44089
1.52924
0.981535
1.35572
2.28349
2.92139
2.65902
2.62053
2.17941
2.20516
2.79792
2.68007
2.70139
2.67882
2.58137
2.59596
2.479
2.58925
1.79186
2.03811
1.56978
1.77234
2.39697
2.65504
2.62627
2.64325
2.1586
2.3599
2.76894
2.63484
2.67419
2.59416
2.66899
1.84536
2.12321
2.62702
2.97744
2.8887
2.53056
2.56605
3.09532
3.0586
2.63786
2.55875
)
;

boundaryField
{
    movingWall
    {
        type            zeroGradient;
    }
    fixedWalls
    {
        type            zeroGradient;
    }
    frontAndBack
    {
        type            empty;
    }
    defaultFaces
    {
        type            empty;
    }
}


// ************************************************************************* //
