/*--------------------------------*- C++ -*----------------------------------*\
  =========                 |
  \\      /  F ield         | OpenFOAM: The Open Source CFD Toolbox
   \\    /   O peration     | Website:  https://openfoam.org
    \\  /    A nd           | Version:  8
     \\/     M anipulation  |
\*---------------------------------------------------------------------------*/
FoamFile
{
    version     2.0;
    format      ascii;
    class       surfaceScalarField;
    location    "0.052";
    object      phi;
}
// * * * * * * * * * * * * * * * * * * * * * * * * * * * * * * * * * * * * * //

dimensions      [0 3 -1 0 0 0 0];

internalField   nonuniform List<scalar> 
662
(
-2.03037e-05
1.61392e-05
4.16463e-06
2.0773e-05
-4.10767e-05
-8.80641e-05
3.5917e-05
6.82863e-05
-1.73785e-05
2.15431e-05
-0.00015214
8.48485e-05
1.04156e-05
-5.14923e-05
9.37398e-05
-7.52013e-05
-2.2604e-05
4.41471e-05
-0.000180977
3.92526e-05
1.72352e-06
-5.32158e-05
2.20209e-06
-0.000121823
-4.69294e-06
0.000124314
-3.42293e-05
3.64314e-05
0.000164397
-9.3261e-05
5.59651e-05
-1.1818e-05
-0.000183951
4.69812e-06
-7.67037e-07
-5.24488e-05
1.15379e-06
-0.000116968
-6.00861e-06
-3.30755e-05
5.76859e-05
-1.72076e-06
0.00019611
-4.35308e-05
-0.000181961
-2.75687e-06
-2.22604e-06
-5.02227e-05
3.65767e-06
-0.000103338
-1.72883e-05
-2.94178e-05
5.74274e-05
2.58457e-07
0.000198803
-4.4143e-06
-1.52412e-06
0.000123298
-0.000123502
1.72837e-06
3.45786e-05
-3.61027e-05
-0.00017753
-6.65786e-06
-4.10619e-05
-9.16088e-06
-2.19019e-05
-1.916e-05
-1.71599e-05
-4.74203e-06
4.83315e-06
-8.81122e-05
-2.00585e-05
-2.45846e-05
-0.000141473
-0.000756505
0.000897977
6.06988e-05
-3.27137e-06
8.98223e-05
-2.91235e-05
-5.16507e-05
0.000199517
-4.55556e-07
-4.22574e-07
0.000120529
3.19179e-06
3.4156e-05
-0.000153252
-3.34385e-05
-9.62769e-05
-7.6135e-05
-4.39713e-05
-6.94654e-05
2.21467e-05
-2.68888e-05
3.45531e-06
-7.67965e-05
-1.4771e-05
-2.11293e-05
-0.00039064
0.000705368
-0.00107123
-0.000953901
0.00185188
0.00021697
-2.07244e-05
0.000293663
-0.000105817
-0.000148627
-3.58913e-06
0.0001069
1.72181e-05
3.05668e-05
-0.00011639
9.45653e-05
2.72769e-05
-5.41657e-05
-2.7727e-07
-3.90864e-07
-7.61283e-05
-2.14066e-05
0.00135489
-0.00160342
-0.000107473
0.00195935
-4.16361e-06
9.28408e-05
1.82224e-05
2.64032e-05
-0.000197931
0.000108818
-6.59168e-05
1.17511e-05
0.00161596
-0.000368539
0.00199294
-3.35843e-05
-2.85479e-06
8.01021e-05
1.55935e-05
2.35484e-05
-6.82387e-05
2.3219e-06
-0.000228747
4.25675e-05
0.00199103
1.90898e-06
0.00171133
-0.000128958
-5.42515e-06
2.96392e-05
5.5888e-05
1.81233e-05
-6.76647e-05
-5.73942e-07
-0.000232916
6.49121e-06
-1.70359e-08
-0.000112339
0.000108903
3.4532e-06
-3.15553e-05
3.15383e-05
0.00196111
2.99161e-05
0.00173154
-1.82973e-05
-0.00180572
0.000950129
0.00085559
-6.82253e-05
5.60593e-07
0.00191697
4.4143e-05
0.00187817
3.87953e-05
7.24533e-05
0.000156756
0.000793373
9.93737e-05
5.73825e-05
3.11484e-05
-0.000233636
1.46129e-07
-4.1222e-07
-0.000113081
1.15426e-06
-3.19675e-05
0.00171195
4.95011e-05
-0.000172019
-7.87463e-06
4.1549e-05
0.000138344
-0.00136391
0.000783622
0.00143588
-0.000244678
1.16024e-05
0.00167143
8.46629e-05
0.00158405
0.000126176
0.000292594
0.000416249
0.00116075
0.000321863
0.000151769
0.000108333
-8.56765e-08
-0.000111984
-1.01112e-06
-3.20532e-05
-0.00017952
-1.514e-06
9.01519e-06
-5.32974e-05
4.54227e-05
4.7748e-07
-0.000109879
-2.58277e-06
-3.15757e-05
-0.000164389
4.63831e-06
-1.97692e-05
-5.48114e-05
1.66044e-06
-9.96994e-05
-1.18401e-05
-2.99153e-05
-0.000142542
7.1943e-06
-2.90419e-05
-5.01731e-05
7.86543e-06
-4.25107e-05
-6.50542e-05
-2.20499e-05
-0.000127581
4.22728e-06
-1.91874e-05
-4.29788e-05
3.91905e-06
-2.0137e-05
-0.000111363
-3.87515e-05
-3.48325e-05
0.000501528
-0.000416679
-0.000139674
0.00020796
0.000361854
0.000132759
-0.000956925
0.000520099
0.000436826
-0.00053826
-0.000418665
-0.000667271
0.000371435
0.000295836
-0.000147173
-0.00074967
0.000211409
-0.000121607
-0.000628063
-0.000367607
0.000246
0.000210625
-0.000627304
-0.000643586
0.000854211
-0.00106225
4.15764e-05
-0.000669639
-0.00102067
-0.000588052
-0.000100932
-0.000568707
-0.0003723
-0.000473232
-0.000415652
0.000548411
-0.000800413
0.00123724
-5.37981e-05
0.000115742
0.0011215
0.000487177
0.00045515
9.91927e-05
0.000387985
0.000422912
-0.000127076
0.000522104
-0.000470982
0.000343906
-0.000618155
-0.000406745
-0.000160745
3.64314e-05
0.00021351
-0.000801562
-0.000807164
-0.00137587
-0.000796864
-5.81779e-05
-0.00131769
-0.00047924
-0.000537418
-0.000241519
0.000696669
0.000879978
0.00126796
0.000653138
0.000241719
0.00102624
0.000404762
0.000117342
0.000646481
0.000184302
0.000159605
0.000301644
3.61027e-05
0.000121013
-0.000917877
-0.00119668
-0.000920634
2.97176e-05
-0.0012264
-0.000554706
-0.000524989
-0.000169637
0.000822776
0.000856607
0.000818361
0.000441883
0.000204597
0.00129849
0.000303372
0.00050797
1.38676e-05
-0.000934502
-0.00121253
-0.00094116
-0.00127416
6.16252e-05
-0.000831886
-0.00044227
-0.000545047
-0.000483422
0.000781462
3.68998e-05
0.000781006
0.00131121
-1.2719e-05
0.00134811
0.000511161
0.000498442
-0.000330039
-0.00061112
-0.00116192
-0.000947376
-0.000214549
-0.000644559
-0.000391533
-0.000555843
0.000397185
-0.000611734
-0.000699803
0.000257533
-0.000302618
-0.000498193
-0.00024066
0.000919516
-0.00013851
0.000898792
0.00142372
-7.56143e-05
0.00128521
0.000515661
0.000440046
0.000308692
-0.000459973
0.000151281
-0.000303042
-0.000694576
-0.000135416
-0.000324556
0.000352658
-0.000428793
-0.000291901
-0.000847744
6.10989e-05
-0.000908843
-0.000633477
-0.000127619
-0.000301174
-0.000197084
-0.000102519
-0.000392747
9.01286e-05
-0.000241465
-0.000241051
-0.000150922
-0.000160645
-8.08203e-05
-0.000296062
-0.000134261
-0.0001618
0.0014412
-0.00158983
0.00200576
-0.000564557
0.000934523
-0.000668901
0.00085631
4.24822e-05
0.000750493
-0.000839334
-0.000832417
0.0008749
0.00135215
-6.69382e-05
0.000519734
0.000458269
0.00039133
0.000558699
-0.00139803
0.00139295
-0.000834246
0.000495209
-0.000629471
-0.000170653
-0.000462824
0.000100436
-0.00040161
0.000808407
-0.00127123
-0.000504129
-0.000438406
-0.000191064
-0.000395311
-0.000531849
9.34428e-05
2.38941e-05
-0.000555743
-0.000248457
9.7535e-05
-0.000329277
0.000491077
-0.000397635
-2.14066e-05
-0.0022438
0.00167924
-0.000850855
0.00101034
-0.000739823
-0.000111032
0.000641804
0.00124687
-0.000371971
-0.000151162
0.000656538
-0.000136804
0.000284566
0.000406924
0.00027012
0.000516819
-1.83959e-05
-0.000498424
-8.52787e-05
-0.000748967
-0.000825101
-0.000308282
0.000306631
-0.000457793
-0.000442336
-0.000866526
-0.000404705
-0.00105759
-0.0010337
-0.000800016
-0.000757449
-8.53787e-05
-0.000948317
-0.000499288
-5.6455e-05
-0.000584667
-0.000257193
-0.000140441
-0.000313648
-3.15383e-05
-0.000728701
0.000617669
-0.000747097
0.00125947
0.00113051
-0.000290356
-0.000456741
0.000485667
-0.000776022
0.00049207
-0.000207503
3.42765e-05
0.000730577
-0.00024491
0.000232153
0.000299759
9.22557e-05
0.000340048
-0.000107895
3.17664e-05
0.000227105
-0.000192829
-0.000215231
-0.000183464
-0.000379064
0.000134154
-0.000122273
-0.000826044
-0.000879722
-0.000873231
-0.00044342
-0.000141247
-0.00126946
-0.000310195
-0.000451442
0.000184593
-0.000641334
0.00131511
0.00129681
-0.000438959
-0.000337063
-0.00108029
-0.000337515
-0.000674578
0.000166267
-7.40113e-05
-2.65617e-05
-0.000210026
0.000317921
-0.000183767
1.81233e-05
-4.54227e-05
-0.00092879
5.55591e-05
-0.000928644
-0.0012301
-3.93624e-05
-0.00117454
-0.000450288
-0.00048965
0.00128133
1.54831e-05
0.00133083
-0.00101751
-6.27855e-05
-0.00100202
-0.000665563
-0.000728349
0.00117271
0.000263173
0.00233345
-0.000915443
-1.32012e-05
-0.00090384
-0.00102735
-0.000147195
-0.00104055
-0.000490661
-0.000637856
0.00132548
5.34691e-06
0.00141014
-0.00113312
0.000131099
-0.00112778
-0.000748118
-0.000617019
0.00113885
-0.000846251
0.00140202
-0.000898924
-4.9158e-06
-0.000790591
0.00126308
0.000147061
0.00138926
0.000543008
-0.0018113
0.00102071
-0.000673922
0.00207594
-0.00165953
0.00110469
-8.39878e-05
0.000866102
-0.000871018
-0.00124748
0.000206932
-0.000381379
-0.000640439
-0.000433507
0.000630455
-0.000483394
-0.00120497
7.71952e-05
-0.000574517
-0.00064606
-0.000568865
-0.000299559
0.000842567
0.00177638
0.0011678
-6.31064e-05
0.000296783
-0.000838875
0.00035548
3.69232e-06
0.00078279
0.000993591
0.000698803
0.00044405
0.000254753
0.000380944
-0.000646692
0.000265313
-0.000349909
-0.000445347
-0.000180034
-0.000771685
0.000197168
-0.000416204
-0.000588053
-0.000390885
-0.000590627
0.000594319
0.000402964
-0.000491542
0.000141633
-0.000110598
-0.00063336
0.000217156
-3.90404e-05
-0.000310923
0.000200325
-5.61702e-05
0.000346794
-0.000222545
-8.0912e-05
-0.000411022
-0.000193866
-0.000340062
0.000146196
-0.000168016
8.71041e-05
3.23089e-05
-0.000379103
-2.20499e-05
3.48325e-05
)
;

boundaryField
{
    movingWall
    {
        type            calculated;
        value           uniform 0;
    }
    fixedWalls
    {
        type            calculated;
        value           uniform 0;
    }
    frontAndBack
    {
        type            empty;
        value           nonuniform List<scalar> 0();
    }
    defaultFaces
    {
        type            empty;
        value           nonuniform List<scalar> 0();
    }
}


// ************************************************************************* //
