/*--------------------------------*- C++ -*----------------------------------*\
  =========                 |
  \\      /  F ield         | OpenFOAM: The Open Source CFD Toolbox
   \\    /   O peration     | Website:  https://openfoam.org
    \\  /    A nd           | Version:  8
     \\/     M anipulation  |
\*---------------------------------------------------------------------------*/
FoamFile
{
    version     2.0;
    format      ascii;
    class       surfaceScalarField;
    location    "0.052";
    object      phi;
}
// * * * * * * * * * * * * * * * * * * * * * * * * * * * * * * * * * * * * * //

dimensions      [0 3 -1 0 0 0 0];

internalField   nonuniform List<scalar> 
1107
(
0.000315988
-0.000643388
0.000633495
-0.000306095
0.000616968
-0.00030098
-2.96868e-05
0.000646655
0.000304963
0.000538556
-0.000106655
-0.000736864
-0.000968717
0.000630292
-9.76547e-05
0.000701463
0.000286064
-5.36024e-05
-1.49163e-05
-3.72711e-05
0.000683926
-3.30511e-05
1.43467e-05
-8.79508e-05
0.000180753
-0.000148835
-6.49696e-05
0.000300273
-0.000856384
-0.00126768
0.000599238
-0.00020746
0.000740097
0.000760961
-9.67694e-05
4.17053e-05
0.000814896
-9.56406e-05
3.58077e-06
-4.28365e-05
-1.13355e-05
0.000725631
0.000853041
2.99183e-05
-6.80634e-05
6.4473e-05
-0.000126751
-8.65571e-05
2.51488e-05
-4.86265e-05
0.000227396
-0.00014076
-0.000213387
0.000277849
-0.000115423
0.000296554
-0.000875089
-0.0015106
0.000539472
-0.000366484
0.000758263
0.000828752
-0.000185424
0.000899196
-0.000166085
5.21558e-06
-2.29033e-05
-6.11995e-06
-2.22798e-05
0.000865012
1.03089e-05
0.000755549
0.000946116
-0.000114983
0.000963396
-3.95598e-05
0.000951772
-2.39025e-05
3.55268e-05
3.54035e-05
-7.27535e-05
-4.92072e-05
1.36218e-05
-2.68447e-05
-8.24027e-05
-0.000131111
0.000322167
-0.000215173
-0.00032038
0.000397173
-0.000190428
0.000306688
-0.000784604
0.000459866
-0.00166378
-0.000570328
0.000743316
0.000880838
-0.000308
0.000968383
-0.000253629
2.99792e-06
-1.22794e-05
-3.12203e-06
8.81474e-05
0.000916822
-5.31973e-05
0.00085343
-1.23202e-05
0.000765858
0.00102601
-0.000172608
0.00105034
-6.38906e-05
0.00103949
4.63758e-05
0.000999289
0.000128347
-0.000118475
0.000932717
0.000185047
5.74529e-05
-0.000104205
-3.56505e-05
2.7605e-05
-1.93593e-05
1.04142e-05
-9.65398e-06
-0.000129772
-0.000216512
-6.19204e-05
-0.000172057
0.000691171
-0.000801633
0.000902256
-0.00046694
0.0010108
-0.000362172
2.20824e-06
-4.07345e-06
-9.13792e-07
0.000865593
-6.72464e-05
0.000823903
-2.36697e-05
0.000753538
0.000822788
-0.000147363
0.000257292
0.00107942
-0.000241225
0.00111046
-9.49327e-05
0.00110212
5.47111e-05
0.00105804
0.000172432
0.00097432
0.000268765
4.56531e-05
-3.06097e-05
-7.69638e-05
2.44426e-05
-1.444e-05
1.14688e-05
-6.38543e-06
4.27971e-06
-2.46492e-06
0.000877156
-0.000652924
0.0010051
-0.000490119
8.82657e-07
-6.76394e-07
-3.11342e-08
0.000334079
0.000669979
-0.00018127
0.000790572
-7.23422e-05
0.000785588
-2.89322e-05
0.000729868
0.000827115
0.000404497
0.00062261
0.000538584
0.000388264
-0.00129502
0.00152937
0.0010842
-0.000320321
0.00112398
-0.000134713
0.00112276
5.59328e-05
0.00107738
0.000217811
0.000974922
0.000371222
-3.58728e-05
-5.57991e-05
6.10622e-05
-1.92695e-05
-3.10434e-05
-9.09322e-06
-1.65617e-05
-3.38032e-06
-8.17781e-06
-6.70698e-07
-3.38602e-06
-7.01832e-07
0.000988081
0.000345339
-0.000945155
0.000371496
-0.000996538
0.000688031
-7.87295e-05
0.000739086
-2.58394e-05
0.000700936
0.000793273
0.000586145
0.00054744
0.000784417
0.000411825
0.00166498
0.000483238
0.000916668
-5.7872e-05
-9.5416e-05
9.74889e-05
-3.13264e-05
-5.75889e-05
-1.47846e-05
-3.31035e-05
-5.47278e-06
-1.74896e-05
-1.09562e-06
-7.76318e-06
-1.79745e-06
0.000101578
0.000300535
-5.67741e-05
0.000227729
-0.000801388
0.000357802
-0.000666309
0.00068087
-2.05141e-05
0.000675097
0.000415696
0.00016912
-4.45958e-05
-0.000125308
7.44877e-05
-2.45126e-05
-7.76722e-05
-1.17946e-05
-4.58215e-05
-4.48682e-06
-2.47974e-05
-9.7274e-07
-1.12773e-05
-2.77019e-06
0.000246576
0.000202797
-0.000148838
0.000201259
-3.03047e-05
0.000136212
-0.000579798
0.000342992
-0.000328432
0.000654583
0.000297462
0.00036481
-1.47258e-05
-0.000134157
2.35747e-05
-8.34611e-06
-8.40519e-05
-4.13094e-06
-5.00367e-05
-1.65731e-06
-2.7271e-05
-4.04479e-07
-1.25301e-05
-3.17467e-06
0.000150038
0.000136318
-8.35588e-05
0.000128994
-7.65724e-05
0.000120949
-1.50411e-05
6.99997e-05
-0.000306805
0.000326151
0.000201654
0.000245846
1.40193e-05
-0.000122487
-2.56893e-05
7.12483e-06
-7.71575e-05
3.17525e-06
-4.60871e-05
1.12039e-06
-2.52161e-05
1.80125e-07
-1.15898e-05
-2.99455e-06
0.000129855
7.87782e-05
-7.23148e-05
8.5885e-05
-4.045e-05
7.41416e-05
-2.97651e-05
5.93323e-05
-4.37365e-06
1.93456e-05
0.000119782
0.000211726
-8.91517e-05
5.98788e-05
0.000149055
1.62387e-05
-3.57856e-05
-0.00010294
7.58749e-06
-6.85062e-05
3.24394e-06
-4.17435e-05
1.17054e-06
-2.31427e-05
2.25391e-07
-1.06447e-05
-2.76915e-06
3.84321e-05
-4.88056e-05
4.8553e-05
-3.49828e-05
4.90008e-05
-1.53092e-05
3.54033e-05
-5.83616e-06
1.4972e-05
-5.21831e-05
2.39714e-05
8.80905e-05
-3.18473e-05
5.7635e-05
-6.75312e-05
-1.25437e-05
-4.24463e-05
-2.81221e-06
-2.03762e-05
-5.58136e-06
1.45004e-05
-2.82514e-05
2.30892e-05
-2.33418e-05
2.72023e-05
-1.31842e-05
2.31759e-05
-3.08187e-06
9.13583e-06
4.95323e-06
-2.5764e-05
4.47822e-05
-2.07363e-06
7.04478e-06
7.23515e-06
-1.22063e-05
-1.29626e-05
5.59645e-05
-6.33781e-05
-1.8544e-05
-1.89124e-06
-8.20725e-06
1.50517e-05
2.34899e-06
-1.36125e-05
8.20901e-06
-1.33713e-05
1.26315e-05
-8.77099e-06
1.27062e-05
-2.71445e-06
6.05395e-06
1.54946e-06
4.35824e-06
-7.98133e-06
-4.99573e-07
3.45637e-06
4.08798e-06
-1.88355e-06
8.45698e-06
-1.68155e-05
1.02421e-05
-3.06749e-06
-3.46386e-07
1.52263e-06
-1.7661e-06
-4.09214e-06
9.0948e-07
-6.31299e-06
4.24061e-06
-4.98043e-06
5.7834e-06
-1.84823e-06
3.3395e-06
3.48043e-06
1.69227e-06
-3.62323e-06
1.66477e-06
2.19392e-06
1.1613e-07
1.4567e-06
-7.50848e-07
3.0399e-06
6.16796e-06
-2.67612e-06
4.80325e-06
-2.38397e-05
2.17126e-05
-2.15229e-06
2.14803e-06
-3.06323e-06
-2.21452e-06
1.02069e-07
-1.39932e-06
-1.78334e-06
2.44102e-07
-2.31648e-06
1.84328e-06
-1.04031e-06
1.49127e-06
3.81534e-06
-3.39759e-07
4.83979e-09
2.64297e-06
7.14081e-07
1.33023e-06
9.7982e-07
2.409e-07
4.6495e-07
-2.00082e-07
5.63865e-07
-5.8135e-07
5.38457e-06
-1.2026e-06
1.7242e-06
-2.67389e-06
-1.39182e-06
1.32535e-06
-1.46652e-06
1.69273e-07
-9.29665e-07
-6.09572e-07
7.33171e-09
-4.80523e-07
4.50956e-07
2.68446e-06
-2.25979e-06
3.39067e-06
2.63637e-06
-3.33147e-07
1.7881e-06
2.56208e-07
8.78203e-07
3.42516e-07
1.81921e-07
8.29456e-08
-1.74836e-08
-1.66995e-06
-9.41732e-07
1.40909e-06
-6.55113e-07
9.87516e-07
-8.34177e-07
6.93009e-07
-8.65093e-07
1.04702e-07
-4.91429e-07
-1.10809e-07
-2.95663e-08
1.4906e-06
-2.0187e-06
3.21256e-06
1.71255e-06
-1.33596e-06
1.67139e-06
-2.16441e-07
1.06804e-06
6.63654e-08
4.59807e-07
6.46289e-08
6.54611e-08
-2.44436e-06
-1.38109e-06
2.15551e-06
-1.03618e-06
-5.60634e-07
-3.34093e-07
4.87437e-07
-4.51044e-07
2.78963e-07
-4.19468e-07
3.2742e-08
-1.40375e-07
2.1363e-06
1.2648e-06
-1.91049e-06
8.29441e-07
-1.13557e-06
1.00948e-06
-6.74057e-07
9.51644e-07
-1.00048e-07
5.20736e-07
5.43128e-09
1.30089e-07
-2.90441e-06
-7.45734e-07
1.20578e-06
-1.61679e-06
-8.00462e-07
-6.04386e-07
-2.90338e-07
-1.5144e-07
1.87836e-07
-2.02195e-07
6.16919e-08
-1.07633e-07
-2.80601e-06
1.86711e-07
-2.85106e-07
1.28075e-06
-1.95046e-06
1.34004e-06
7.54201e-07
4.28821e-07
-5.5491e-07
5.40047e-07
-2.62465e-07
4.47016e-07
-2.63302e-08
1.35518e-07
-1.93915e-06
-4.23365e-07
-1.00334e-06
-4.01507e-07
-3.22542e-07
-1.19234e-07
-5.319e-08
3.88322e-08
-4.59404e-08
-1.86556e-06
1.13131e-07
7.55233e-07
7.91947e-07
3.91077e-07
1.97701e-07
-2.12564e-07
2.40223e-07
-5.56744e-08
1.09188e-07
-1.21621e-06
-2.10497e-07
-5.66045e-07
-1.58004e-07
-1.44815e-07
-2.76075e-08
-7.10747e-09
-1.16304e-06
5.99598e-08
3.84146e-07
4.28161e-07
1.60619e-07
7.1154e-08
-4.34958e-08
5.35153e-08
-6.92932e-07
-8.36097e-08
-2.67383e-07
-3.54362e-08
-3.47147e-08
-6.59002e-07
2.60317e-08
1.53307e-07
1.94454e-07
3.73211e-08
1.00218e-08
-3.31426e-07
-1.95657e-08
-7.01504e-08
-3.126e-07
7.20698e-09
3.51633e-08
4.7344e-08
-8.97152e-08
-8.25068e-08
0.000597177
-0.00138178
-0.0010666
0.00032339
-0.000539902
0.000860673
-0.000537283
0.000540293
0.00130423
-0.000763935
0.0011138
-0.000267981
0.00157003
-0.00183801
0.000503429
-0.000298204
-0.00139483
0.000630891
0.000139433
-0.00031149
-0.000400469
4.44316e-05
-0.000121395
-0.000267058
0.000331789
-0.000732259
0.00117707
-0.000845277
0.000639783
-0.000755044
0.00207391
-0.00144302
0.000235902
0.00130953
-0.00107362
0.00101132
0.000358398
0.00101906
-0.0017741
-0.000423967
-6.03332e-05
0.000230324
-0.000290657
-3.67341e-05
-0.000768993
-6.74389e-05
-0.000701554
0.00137361
-0.00144105
0.000528337
-0.00124576
0.00142772
-0.00185168
0.000354093
0.00088675
-0.000532657
-0.00124515
0.000755029
-0.00137861
0.00105829
-0.000623583
0.000989353
-0.00223511
-0.000862332
0.000861221
0.000803762
0.00177789
-0.000412649
0.000998794
-0.00149312
0.0013584
-0.000434825
-0.00116161
0.000748961
-0.000790388
-0.00132425
0.00138018
3.41568e-05
-0.00129267
0.00050228
-0.00107486
0.000305322
-0.000193168
0.000132772
-0.00032594
-0.000568782
0.000281008
-0.000849791
-0.00116004
0.000202086
-0.00136213
-0.00203303
0.00114253
-0.00200486
-0.000609875
-1.37087e-05
-0.000666009
0.000231183
-0.000679718
-2.56239e-05
-0.0020074
-0.00203049
-0.000901098
0.00170486
-0.000116681
0.000882113
0.000282277
0.00149561
0.00198714
0.00166473
-2.57042e-05
0.000907817
-0.00101534
0.000989631
-0.000266374
-0.000584911
0.000619067
-0.000353727
-0.000969639
0.000703265
-0.000467359
-0.00079638
0.000329021
-0.000491058
0.000128009
-0.000251453
8.11031e-05
-0.000332556
-0.000768687
3.47179e-05
-0.000803405
-0.00132741
-0.000351314
-0.000976098
-0.00235872
0.000886058
-0.00123979
0.00020634
-0.00182415
-0.00142725
0.000187465
0.000920933
-0.00274508
-0.00143779
0.0005398
0.00144734
0.00144762
-0.0010084
0.00137321
0.000656328
0.00210367
0.000100275
0.00134734
0.00108991
4.59148e-05
0.00104399
0.00074918
0.000220406
0.000528774
0.000549427
0.000677437
-0.000749814
-0.000308981
9.92405e-06
-0.000318905
-0.000793481
-0.000349507
-0.000443975
-0.0013256
-0.000424977
-0.000900628
-0.00186276
0.00201463
-0.00182716
-0.000730451
0.00173317
-0.00248298
-9.3997e-05
0.00128833
-0.00201878
-0.000574428
-0.000616329
0.000862175
0.000756884
-0.00121136
0.00196824
0.000892305
0.00223965
0.00140791
0.000831738
0.0024519
0.00298067
-0.000632961
0.00205807
-0.00142511
0.00311594
-0.000135268
-0.000344594
0.000564821
-0.00113925
-9.40858e-05
-0.000250509
-0.00053806
-0.000119235
-0.000418825
-0.00101986
-0.000455042
0.00182262
0.000235446
-0.00172862
-0.00029016
-0.000732026
0.000967472
-0.000976446
-0.000162803
0.000647808
-0.000937968
-0.000328637
-0.00117722
0.000445193
-0.00032467
0.000536396
0.000537506
2.76194e-05
-0.00060456
0.00057694
-0.0011496
-0.000122702
0.000348604
-0.000225903
-0.000727261
-0.000701374
0.00123888
0.00126687
0.00209861
-0.000341578
-0.000808021
-0.00176668
0.00121666
0.000881945
0.0010814
-0.000685288
-0.000286294
0.000394615
-0.000557418
-0.000676101
0.000221059
-0.000281486
-0.0001258
-0.000160494
-0.000544626
-0.000323567
-0.00125954
0.000321572
-0.000292069
-0.000607729
0.00031566
-0.000162537
-0.000502657
-5.4761e-05
0.000831295
-0.000509722
-0.000675479
0.000512943
-9.85391e-05
0.000368312
-1.97074e-05
0.000269773
-0.000219129
0.000199421
1.71139e-05
0.000144361
-0.000161475
-0.000202015
-0.000427918
-0.00025874
-0.000169177
-0.000112678
0.000261733
0.000423718
-0.000148622
0.00057234
0.00109026
0.000316561
-0.000575301
-0.0004107
-0.00121872
0.000469051
0.000621207
-0.000665708
-0.000553014
0.001351
-2.15248e-05
0.000109615
0.000240208
0.000113811
-0.000274305
-1.08713e-05
-0.00046585
0.000184363
-0.000520611
-0.000100918
-0.000173387
-0.000424485
-0.000240121
0.000482932
3.00105e-05
-0.000798592
0.00028887
-0.000531355
1.07446e-05
-0.000242485
-0.000300294
0.000330304
-0.000345928
4.56346e-05
-7.6156e-05
-0.000238306
0.00016215
-3.88845e-05
-0.000131731
9.28467e-05
1.26303e-05
5.4924e-06
2.43164e-05
-2.98088e-05
1.27276e-05
-2.39997e-05
4.83162e-05
6.96346e-05
-9.36344e-05
8.22649e-05
-4.68277e-05
-4.68066e-05
-0.000208303
-2.41847e-05
-5.62412e-06
-7.09913e-05
-1.78304e-05
-0.000102046
-0.000106257
-0.000271223
-0.000103935
-0.000167288
-0.000679236
-9.39571e-05
0.000334165
0.000478383
0.00109959
-0.000442679
-0.000236557
0.000995693
0.000103897
1.85918e-05
2.61904e-05
0.000128207
4.63835e-05
8.18236e-05
0.000380549
5.4013e-05
-0.0002274
1.35182e-05
-7.32619e-05
-0.000154138
-0.000313383
-0.000302639
-0.000234651
-6.79876e-05
-0.000477137
-0.000146832
0.000191614
-2.94639e-05
-0.000237248
9.04163e-05
5.33389e-05
2.8926e-05
0.000146186
0.000116722
4.08866e-05
7.42963e-06
6.98125e-05
1.76717e-05
-4.89906e-05
-2.20008e-05
-0.000155247
-2.29873e-05
5.15687e-06
-4.4988e-05
-2.82451e-06
1.51131e-05
-6.13319e-08
4.13035e-05
-0.000102939
-5.23083e-05
-0.000270227
-0.000148213
-0.000122015
-0.00038477
0.000341247
3.93018e-05
0.000445143
6.03732e-05
9.28173e-06
3.20217e-05
9.11053e-05
0.000130407
9.69097e-05
-2.70971e-05
0.000213631
-0.00023606
8.19221e-05
-0.000304048
-1.8544e-05
-5.38457e-06
-7.98873e-06
7.92739e-06
-6.46606e-06
-4.05688e-05
-4.41926e-06
-9.28771e-05
-1.26434e-05
9.81889e-06
-1.70627e-05
6.19565e-06
1.13039e-05
-3.37649e-06
4.33256e-05
-7.48668e-05
-1.80103e-05
-0.000196882
-0.000136508
3.32477e-05
1.0078e-05
0.000163655
2.71465e-05
-8.29264e-06
4.91613e-06
5.03135e-06
-8.09457e-06
-1.43471e-06
-9.72734e-06
-7.59426e-07
-7.33513e-06
-3.43328e-06
-3.01949e-05
1.31322e-05
-4.82052e-05
-1.79986e-06
7.99551e-06
1.13324e-05
8.00035e-06
1.30356e-05
-8.11941e-06
2.31135e-05
3.04711e-05
-7.35753e-06
-5.76175e-05
9.41232e-06
-4.25705e-07
-9.30163e-06
-8.54509e-06
-2.49192e-06
-4.84319e-06
-1.17935e-05
-2.02417e-06
-6.86735e-06
2.77234e-06
8.56002e-06
1.21846e-05
-4.20877e-06
7.59945e-06
3.79158e-06
1.23516e-05
-2.46805e-06
-6.07704e-06
-9.82559e-06
-1.10908e-05
1.26517e-06
1.09388e-06
8.20928e-07
6.77852e-06
4.03349e-06
-8.07206e-06
-3.72147e-06
-1.41491e-05
-4.71183e-06
-8.4333e-06
5.0384e-07
6.27469e-06
1.28554e-05
1.39493e-05
-1.28237e-05
-1.32545e-06
1.15585e-05
2.3908e-06
2.12301e-06
8.39769e-06
-7.22751e-06
-8.55296e-06
-8.83805e-06
6.44724e-06
)
;

boundaryField
{
    movingWall
    {
        type            calculated;
        value           uniform 0;
    }
    fixedWalls
    {
        type            calculated;
        value           uniform 0;
    }
    frontAndBack
    {
        type            empty;
        value           nonuniform List<scalar> 0();
    }
    defaultFaces
    {
        type            empty;
        value           nonuniform List<scalar> 0();
    }
}


// ************************************************************************* //
