/*--------------------------------*- C++ -*----------------------------------*\
  =========                 |
  \\      /  F ield         | OpenFOAM: The Open Source CFD Toolbox
   \\    /   O peration     | Website:  https://openfoam.org
    \\  /    A nd           | Version:  8
     \\/     M anipulation  |
\*---------------------------------------------------------------------------*/
FoamFile
{
    version     2.0;
    format      ascii;
    class       volScalarField;
    location    "10000";
    object      nut;
}
// * * * * * * * * * * * * * * * * * * * * * * * * * * * * * * * * * * * * * //

dimensions      [0 2 -1 0 0 0 0];

internalField   nonuniform List<scalar> 
4109
(
0.000666258
0.000661143
0.000658994
0.000666494
0.000669128
0.000677726
0.000672309
0.000677834
0.000675094
0.000656952
0.000666836
0.000678393
0.000667751
0.000671225
0.000676896
0.000677629
0.000666099
0.00067377
0.00067917
0.00067574
0.000660309
0.000678075
0.000675373
0.000678083
0.000673687
0.000668148
0.000656717
0.000672687
0.000677481
0.000681392
0.000677358
0.000676589
0.000669905
0.000671165
0.00067748
0.000682464
0.000673898
0.000667083
0.000666994
0.000669946
0.000667234
0.000662751
0.000674089
0.000681481
0.000678126
0.00148316
0.000834762
0.000677923
0.000677392
0.00066401
0.000673181
0.000677458
0.000676978
0.000672719
0.000675898
0.000660833
0.000660641
0.000678154
0.000676604
0.000669763
0.000675939
0.00196285
0.000684656
0.000680092
0.000679294
0.000741799
0.00123256
0.000678716
0.00067353
0.00066074
0.000671611
0.000678935
0.000689437
0.000677356
0.000679782
0.000673368
0.000670846
0.000667809
0.000647701
0.0006751
0.00067932
0.000679843
0.00067568
0.00066854
0.000726745
0.000741518
0.00152882
0.00193106
0.0019465
0.000684497
0.000685493
0.000680569
0.000680244
0.00068043
0.00068031
0.000942868
0.000676797
0.000663067
0.00069215
0.000686003
0.000682332
0.000686539
0.000692451
0.000684845
0.000673051
0.000676275
0.000674401
0.000666497
0.000657599
0.000678674
0.000651995
0.000680808
0.000680679
0.000677071
0.000670762
0.00210016
0.000824482
0.000992968
0.00126649
0.00196982
0.00201126
0.000668934
0.000687798
0.000689215
0.000682885
0.000682043
0.000681575
0.000676994
0.000937157
0.000657081
0.000665116
0.000692982
0.000689521
0.000694141
0.000692902
0.000681226
0.000689443
0.000676545
0.00067367
0.000671921
0.000659642
0.000677543
0.000682087
0.000681496
0.000682112
0.000678207
0.000671106
0.00175778
0.00102418
0.001947
0.0013118
0.00201076
0.000801736
0.000690524
0.000688852
0.000683249
0.000682933
0.000682979
0.000681023
0.00066557
0.000818532
0.000635773
0.000694228
0.000690487
0.000696296
0.000694303
0.000695497
0.000696317
0.000680837
0.000679215
0.000677037
0.000671121
0.000655687
0.000680031
0.000674265
0.000683536
0.000683207
0.00067896
0.0006735
0.00118955
0.0022766
0.00121377
0.00194047
0.001996
0.000750698
0.000685815
0.000686142
0.000684843
0.00068279
0.000684422
0.000668604
0.000860121
0.000634041
0.000688896
0.000689207
0.000697156
0.000692025
0.000697555
0.000700321
0.000691743
0.000685022
0.000679231
0.000676838
0.000673363
0.000662501
0.000682531
0.000676094
0.000684285
0.000684251
0.000681518
0.000673601
0.00116437
0.00214263
0.00198166
0.00117129
0.00202798
0.000748239
0.000685986
0.00068805
0.000685623
0.000671571
0.000858371
0.000647797
0.000689095
0.000691109
0.000692439
0.000692303
0.000695298
0.000700714
0.000698417
0.000702046
0.00068664
0.000682456
0.000679874
0.000674903
0.000659753
0.000685264
0.000672509
0.000685585
0.00068589
0.00068237
0.000683524
0.000676449
0.00109786
0.0021668
0.00120796
0.001968
0.0020143
0.000727627
0.000688585
0.000688749
0.000679212
0.000857244
0.000655255
0.000692144
0.00069162
0.000694055
0.000695813
0.000695599
0.000695854
0.000701318
0.00070361
0.000696693
0.000693042
0.00068229
0.000678414
0.000666226
0.000683511
0.000688392
0.000674515
0.000687144
0.000685071
0.00067634
0.000685538
0.00218347
0.00104747
0.00198896
0.00118719
0.00203996
0.000725521
0.000782843
0.000674348
0.000680933
0.000851151
0.000657077
0.000692621
0.000690041
0.000694584
0.000698564
0.000699208
0.00069712
0.000698764
0.000704659
0.000703081
0.000707616
0.000698337
0.000692275
0.000662493
0.000680377
0.000675025
0.000684955
0.000685323
0.000692615
0.000673955
0.000690215
0.00067952
0.000687189
0.00101654
0.00217076
0.00196071
0.00114786
0.00201503
0.000712759
0.000754227
0.000791965
0.000796536
0.000776138
0.000781047
0.000789428
0.000933756
0.000657991
0.000630107
0.000676562
0.000661393
0.000688514
0.000694437
0.000701275
0.000696714
0.000699048
0.000710218
0.000699522
0.000705478
0.000710252
0.000707384
0.000699009
0.000706458
0.000701032
0.000673301
0.000677399
0.000686296
0.000688453
0.000679284
0.000694701
0.000677226
0.000691019
0.000689165
0.000985922
0.00223348
0.00196211
0.000704644
0.000781649
0.000845627
0.000776562
0.000788894
0.000787184
0.000805403
0.000707786
0.000723057
0.000731182
0.000762507
0.000766352
0.000739405
0.000774973
0.000783626
0.00147096
0.000617694
0.000601105
0.000642124
0.00069491
0.000712885
0.00069793
0.000699945
0.000702225
0.000700739
0.000709239
0.000702444
0.000709218
0.000715881
0.00071441
0.000708488
0.000719718
0.000730565
0.000729091
0.000666375
0.000682994
0.000689834
0.000688667
0.000682667
0.000690363
0.000696157
0.000674264
0.000694434
0.000954492
0.0023698
0.000812917
0.000817778
0.000783554
0.000782797
0.000801207
0.000722358
0.000710015
0.000739573
0.00072885
0.00073474
0.000743961
0.000750938
0.00078008
0.000773021
0.000771031
0.00251427
0.00108342
0.00055039
0.000616964
0.00068484
0.000713753
0.000713381
0.000700474
0.000704157
0.00070036
0.000702779
0.00070872
0.000703469
0.000718359
0.000718383
0.000723985
0.000723503
0.000728303
0.000726314
0.00067846
0.000685221
0.000693821
0.000693994
0.000691277
0.000682441
0.00069246
0.000696407
0.000699829
0.000700012
0.000676539
0.000982095
0.000792404
0.000845205
0.000813598
0.000783767
0.000789003
0.000800714
0.000729181
0.000719264
0.000725845
0.00073684
0.000740067
0.000740451
0.000729982
0.000732529
0.000734725
0.000755152
0.000775065
0.000770398
0.000767088
0.00240637
0.00188757
0.000629066
0.00063026
0.000682897
0.000713236
0.00071153
0.000699833
0.000703764
0.000705577
0.000704536
0.000706444
0.000716621
0.000717352
0.00072241
0.000722517
0.000722847
0.000726497
0.000672548
0.000695165
0.000691415
0.000696598
0.000697502
0.000685976
0.000685736
0.000693737
0.000697295
0.000689702
0.00150566
0.00177901
0.000703755
0.000651938
0.000816201
0.0008158
0.000834058
0.000843411
0.000818474
0.000779392
0.000787528
0.000804595
0.000732342
0.000729804
0.000734656
0.00074018
0.000749291
0.000738791
0.000754095
0.000735516
0.0007412
0.000764273
0.000759209
0.000770821
0.000774489
0.00278702
0.00217928
0.00237047
0.000591701
0.000604252
0.000676025
0.000707724
0.000710786
0.000703375
0.000708563
0.00070566
0.000706809
0.000712341
0.000715506
0.000717361
0.000720665
0.000723511
0.00072844
0.000729592
0.000686517
0.000689663
0.000704269
0.00069706
0.000696096
0.000696621
0.000699744
0.000705148
0.000689766
0.000692912
0.000650519
0.000609105
0.000833277
0.000811154
0.000822821
0.000772178
0.000753121
0.000853262
0.000810039
0.000783689
0.000786126
0.000799478
0.000735317
0.000733734
0.000732548
0.000762816
0.00074474
0.000749484
0.000739535
0.000741817
0.000760119
0.000755396
0.000767055
0.000773012
0.000721513
0.00284976
0.00248791
0.00250274
0.000636176
0.00060057
0.000674864
0.000708724
0.000711171
0.000707912
0.000700743
0.000709741
0.000713253
0.000715882
0.000718168
0.000720999
0.000724377
0.000726664
0.000730681
0.000732652
0.000677463
0.000699524
0.000701345
0.000702179
0.000701214
0.000703283
0.000702603
0.000701552
0.000690968
0.000698237
0.000698535
0.000682293
0.000833755
0.000762114
0.000775929
0.000825512
0.000768338
0.000858778
0.000806156
0.000785537
0.000791953
0.000800142
0.000808147
0.000738785
0.000736166
0.000736587
0.000732746
0.000742885
0.000752132
0.000748784
0.000759373
0.000764204
0.00077204
0.000772974
0.000699677
0.00290538
0.00258041
0.0026482
0.000610332
0.000589553
0.000668023
0.000714169
0.000709997
0.000712516
0.000707618
0.000714456
0.000718744
0.000723482
0.000719201
0.000724659
0.00072971
0.000729241
0.000734195
0.000737175
0.000690586
0.000694301
0.00070938
0.000707813
0.000704253
0.000705805
0.000709921
0.000693728
0.000695727
0.000699239
0.00065538
0.00082534
0.000807001
0.000754352
0.000745641
0.000768304
0.000808853
0.000760515
0.000818821
0.00084857
0.000783231
0.000794061
0.00079613
0.000809212
0.000741998
0.000737882
0.0007391
0.000738969
0.000738733
0.00074731
0.000747499
0.000745284
0.000756144
0.000765072
0.000775427
0.00077977
0.000796983
0.00293717
0.00277235
0.00267193
0.000639319
0.000581238
0.000682168
0.000715726
0.000712734
0.00070527
0.000715765
0.000719124
0.000722538
0.000720519
0.000726678
0.000731715
0.000734374
0.000735656
0.000738371
0.000685477
0.000706242
0.000708059
0.000694955
0.00070817
0.000706522
0.000708098
0.000704476
0.000699446
0.000700363
0.000650392
0.000845329
0.000821365
0.000823159
0.000792267
0.000736471
0.000737743
0.000751785
0.000773107
0.000801711
0.000773511
0.000735648
0.000829516
0.00083731
0.000849638
0.000782745
0.000796472
0.000798009
0.000798372
0.000743635
0.000740386
0.000737116
0.000738385
0.000747728
0.000753438
0.000746811
0.000783374
0.000761238
0.000761566
0.000773242
0.000721135
0.00298105
0.00287836
0.00282556
0.000682565
0.000613322
0.000593667
0.000721208
0.000712282
0.000722611
0.00071875
0.000725871
0.000726003
0.00072307
0.000732462
0.000734349
0.000735743
0.000700273
0.000704206
0.000713071
0.000697666
0.000700463
0.0007123
0.00070751
0.000709266
0.000715087
0.000700221
0.000645629
0.000694303
0.000705103
0.000824769
0.000810524
0.000811036
0.00078288
0.000733993
0.00075163
0.000771076
0.000765716
0.000792585
0.000723135
0.000720489
0.000719677
0.000711725
0.000703352
0.000833502
0.000814181
0.000830032
0.000815876
0.000786427
0.000785195
0.000787096
0.000784132
0.000745602
0.000741333
0.000743364
0.000755038
0.00075122
0.000749793
0.00074309
0.000772467
0.000772577
0.000765881
0.000769388
0.000862197
0.0030812
0.00301783
0.00266152
0.000600201
0.00058896
0.000716577
0.000668527
0.000733371
0.000721288
0.000731014
0.000734071
0.000737595
0.000699794
0.000716519
0.000699384
0.000702589
0.000708992
0.000713346
0.000710726
0.000712196
0.000647711
0.000700405
0.000704606
0.000705744
0.000704582
0.000810358
0.000803001
0.000801587
0.000773699
0.000731446
0.000758601
0.000788226
0.000758369
0.000739198
0.000722787
0.000722326
0.000714225
0.000711871
0.000701136
0.000712633
0.000819152
0.000851431
0.000813152
0.000820597
0.000772633
0.000775945
0.000779164
0.000764174
0.000744145
0.000743613
0.000752779
0.000747537
0.000753148
0.000748822
0.000747913
0.000773077
0.000774199
0.000764009
0.000600675
0.00301885
0.00303514
0.00271914
0.000584664
0.00057669
0.000739587
0.00104359
0.00072914
0.000734067
0.000737358
0.000726354
0.000701943
0.000705363
0.000719139
0.000713343
0.000717108
0.000710645
0.000668256
0.00070948
0.000715242
0.000722546
0.000798206
0.000800707
0.000795473
0.000791689
0.000765053
0.00076085
0.000779182
0.000751578
0.000743675
0.000753169
0.000736905
0.000726932
0.000734466
0.000729807
0.00072856
0.000729323
0.000780501
0.00080262
0.000785539
0.000810352
0.000764549
0.00076335
0.000772526
0.000767059
0.000786337
0.0007447
0.000759009
0.000754338
0.000753462
0.000751402
0.000747543
0.000761087
0.000763733
0.000762832
0.000652053
0.0031672
0.00311454
0.00308816
0.000521787
0.000730775
0.000623748
0.000737327
0.000739573
0.000704122
0.000706801
0.000713763
0.000716704
0.000718301
0.000715132
0.000681472
0.000709614
0.000731107
0.000706684
0.000796965
0.000794569
0.000788689
0.000778046
0.000756886
0.000774881
0.000746095
0.000767532
0.000764999
0.00075651
0.000736836
0.000740971
0.000751557
0.000743502
0.000747355
0.000811957
0.000786015
0.000803335
0.000757013
0.000755443
0.000762665
0.000778092
0.000778295
0.000754647
0.000751564
0.000747881
0.000756304
0.000753959
0.000752845
0.000541507
0.00315504
0.00451655
0.000982408
0.00074732
0.000624897
0.000742942
0.000710469
0.000723583
0.000717953
0.000724022
0.000714952
0.000687646
0.000709299
0.000711613
0.000785508
0.000782357
0.000777861
0.000770986
0.000751427
0.000740671
0.000736378
0.000731843
0.000728246
0.000711949
0.000714869
0.000724374
0.000717777
0.00072109
0.000778716
0.000794244
0.000788784
0.00075298
0.000759067
0.000774433
0.000752273
0.000774514
0.000752664
0.000748297
0.000751739
0.000750803
0.000752074
0.000756433
0.00543212
0.00515345
0.0014157
0.000765447
0.000573582
0.000718993
0.000721465
0.000716383
0.00072021
0.000692814
0.000715807
0.000728339
0.000781691
0.000784
0.000769992
0.000762461
0.000745371
0.000741587
0.000736439
0.000733801
0.000716941
0.000721389
0.000729071
0.000722717
0.0007273
0.000768414
0.000776975
0.000780054
0.000761136
0.000763823
0.000753084
0.000769159
0.000747996
0.000747102
0.000746549
0.000749367
0.00112691
0.000979268
0.00628768
0.00682822
0.00239289
0.00122807
0.000722932
0.00072001
0.000727591
0.000725511
0.000632136
0.000724663
0.0007265
0.000766124
0.000767332
0.000764501
0.000760206
0.000752361
0.000751606
0.000743994
0.000733394
0.000730727
0.000744563
0.000738681
0.000737047
0.000768885
0.000764094
0.000769744
0.000759114
0.000750434
0.000753619
0.000760967
0.000871579
0.000966704
0.00155542
0.00833571
0.00824154
0.00135779
0.00103473
0.00190876
0.000724321
0.00072246
0.000726675
0.00073479
0.000564488
0.000728245
0.000724397
0.000769564
0.000767398
0.000759356
0.000754433
0.000749872
0.000746371
0.000731887
0.00073398
0.000742773
0.000739921
0.00073696
0.000766272
0.000765846
0.000757014
0.000754799
0.000754961
0.000758226
0.000576018
0.000754683
0.00079318
0.0024553
0.00119626
0.000836343
0.00188688
0.00179722
0.00072877
0.000725079
0.000749367
0.000536594
0.000730774
0.000726191
0.000755611
0.000757066
0.000754632
0.000749544
0.000747144
0.000729115
0.000736722
0.000742527
0.000741543
0.000736524
0.000765151
0.000762563
0.000749427
0.000763755
0.000750747
0.000752234
0.00047356
0.000481766
0.000625514
0.000612661
0.000562116
0.00184247
0.000996399
0.00063873
0.00161907
0.00166802
0.000729451
0.00073695
0.000767671
0.000732445
0.000731861
0.00073143
0.000756103
0.000749955
0.000748684
0.000743728
0.000737028
0.000732883
0.000743406
0.000739525
0.000737736
0.000760135
0.000748734
0.000759778
0.000747328
0.00074785
0.000374648
0.000387171
0.000487809
0.000432016
0.00163633
0.000407131
0.00191225
0.00153351
0.00077644
0.000447344
0.00133272
0.0015239
0.000725604
0.000745353
0.000731104
0.000733563
0.000735267
0.000750785
0.000749786
0.000749186
0.000745057
0.000737952
0.000737604
0.000743927
0.000740875
0.000739944
0.000755116
0.000745844
0.000742832
0.00138573
0.000288043
0.000294389
0.000346604
0.000258381
0.00141388
0.000280811
0.00197274
0.00159881
0.00122113
0.000550759
0.000267539
0.00103011
0.00136441
0.000739017
0.000729022
0.000735002
0.000731112
0.000739995
0.000742352
0.00074542
0.000743557
0.000736375
0.000736995
0.000743287
0.000740247
0.000740396
0.00140429
0.00115321
0.000214319
0.000204306
0.000207655
0.000103096
0.00116626
0.000184126
0.00202847
0.00164693
0.00128528
0.000922195
0.000332124
0.000108733
0.000727878
0.00118284
0.00166806
0.00114091
0.000939124
0.000150934
0.000119893
8.13988e-05
7.2493e-06
0.000908337
0.000109793
0.00223971
0.00169703
0.00132349
0.000980169
0.000643992
0.000138634
8.72218e-06
0.000443103
0.000977889
0.0019842
0.0013429
0.000922168
0.000734592
9.27026e-05
4.46538e-05
4.63562e-06
0.000653079
5.76903e-05
0.00125542
0.00194718
0.00136937
0.00100912
0.000691547
0.000393029
1.45479e-05
0.00019781
0.0027692
0.00155785
0.00105634
0.000727719
0.000534647
3.76783e-05
1.52109e-06
0.000408043
3.12277e-05
0.00113318
0.000963707
0.00160767
0.00105063
0.000712226
0.000426895
0.00017818
3.37932e-05
0.00417821
0.00216848
0.00120489
0.000813268
0.000540895
0.000341868
1.0854e-06
0.000186949
0.00141741
0.000947408
0.00071663
0.0012465
0.000746518
0.000440612
0.000196618
2.72927e-05
0.0042735
0.00364281
0.00163182
0.000910886
0.000603436
0.000358471
0.000162514
2.63216e-05
0.0018398
0.00121074
0.000772526
0.000507291
0.000886748
0.000465208
0.00020486
3.21003e-05
0.00532713
0.00350839
0.00304077
0.00117562
0.000658933
0.000410194
0.000182421
2.42969e-05
0.00217773
0.00146717
0.00100063
0.000604835
0.000331425
0.000550656
0.000218684
3.50844e-05
0.00461646
0.00437159
0.00272024
0.00239695
0.000806609
0.000451683
0.000227788
3.4876e-05
0.00236272
0.00172913
0.00112093
0.000785355
0.000441658
0.000187984
0.000260361
3.95301e-05
0.00399183
0.00393957
0.00326539
0.0019704
0.00177538
0.000508055
0.000274867
6.33677e-05
0.00238551
0.00187166
0.00131697
0.000808135
0.000560844
0.000285438
7.84654e-05
5.33501e-05
0.00381786
0.00335485
0.00329871
0.00213846
0.00131183
0.00120542
0.000284629
9.6165e-05
0.00222806
0.00189037
0.00142248
0.000947959
0.000533816
0.000326994
0.000130727
1.52155e-05
0.0037706
0.00320343
0.00268449
0.00268293
0.00119614
0.000805196
0.00070183
0.000121562
0.00186881
0.00177236
0.00143747
0.001022
0.000626241
0.000301698
0.000124395
1.38435e-05
0.00392874
0.00316317
0.00256913
0.00202906
0.00210556
0.000549633
0.000455723
0.000266297
0.00142729
0.00149031
0.00135219
0.00103345
0.000674087
0.000354723
0.000117245
9.38814e-06
0.00437706
0.00327569
0.00253542
0.00195129
0.00141701
0.00149693
0.000197787
0.00023286
0.00109242
0.00121613
0.00113908
0.000975077
0.000682228
0.000381308
0.000139625
9.39427e-06
0.0052768
0.00364251
0.00261044
0.00192473
0.00137178
0.000874576
0.000719184
5.0895e-05
0.00125138
0.00091351
0.00100257
0.000821977
0.000645287
0.000386359
0.000150523
1.31708e-05
0.00434432
0.00457041
0.00290373
0.00196896
0.00135212
0.000852173
0.000429064
0.000148399
0.00220866
0.00096193
0.00074622
0.000784768
0.000543505
0.000366315
0.000152846
1.51733e-05
0.00424281
0.00363921
0.00381548
0.00216976
0.00137371
0.000838536
0.000418646
0.000124547
0.00202469
0.00191167
0.000713175
0.000585213
0.000558058
0.000307638
0.000144953
1.56538e-05
0.00261981
0.00368689
0.00291068
0.00305446
0.00148389
0.000846645
0.000410309
0.000120067
0.00194529
0.00168952
0.00157264
0.000503688
0.000427459
0.000324366
0.000120221
1.42486e-05
0.00189693
0.00202242
0.00306093
0.00221333
0.00232134
0.000885405
0.000411115
0.000115735
0.00187626
0.00161787
0.00135866
0.00121491
0.000328708
0.000275834
0.000123398
1.00552e-05
0.00165667
0.00148239
0.00151852
0.00243002
0.00158039
0.00163546
0.000421798
0.000113364
0.00181156
0.00156269
0.00129531
0.00103903
0.000861636
0.000186339
0.000125344
9.38954e-06
0.00141876
0.00132876
0.00113606
0.00109753
0.00181031
0.00101884
0.0009461
0.000126472
0.00191333
0.00186859
0.00150149
0.00125167
0.00098449
0.000736118
0.000533212
7.71247e-05
1.25972e-05
0.00139203
0.00115823
0.00105004
0.0008412
0.000746846
0.00123764
0.000558193
0.000236996
0.00137003
0.00179339
0.00159704
0.00119074
0.000951592
0.000692447
0.000457078
0.000249942
1.39649e-05
0.00161558
0.00115778
0.000937514
0.000820522
0.000598869
0.000437654
0.000659587
0.000213934
0.00056573
0.00120788
0.0011936
0.00165775
0.00131049
0.00089621
0.000669364
0.000426045
0.000213232
4.9452e-05
0.00140797
0.000942376
0.000736624
0.000616238
0.000407382
0.000219544
0.000143674
0.000408107
0.000501382
0.00116316
0.00101654
0.000985549
0.00150879
0.00100968
0.000624282
0.000411445
0.00019641
3.7267e-05
0.000630446
0.000940822
0.00116921
0.000736978
0.000546036
0.000424908
0.000248702
8.27645e-05
0.000279906
0.000399577
0.000994831
0.00081946
0.000762997
0.00134488
0.000710766
0.000380247
0.00018812
3.21256e-05
0.000523465
0.00081585
0.000914591
0.000536595
0.000361809
0.000235157
8.95058e-05
0.000183373
0.000308766
0.000814242
0.000623513
0.000537592
0.00116069
0.000430459
0.000171684
2.93629e-05
0.000419002
0.000677282
0.000659865
0.000343245
0.00018399
6.41736e-05
0.000109722
0.00023106
0.000627636
0.000434803
0.000321847
0.000953837
0.000189851
2.53498e-05
0.000317757
0.000528759
0.000413396
0.000163436
3.58553e-05
5.9411e-05
0.000163905
0.00044173
0.000258553
0.000132436
3.0882e-05
0.000220572
0.00037641
0.000190176
2.46951e-05
3.22339e-05
0.000101572
0.000263613
0.000103706
1.30161e-05
0.000130303
0.000226753
2.73579e-05
4.18982e-05
0.000105305
7.69258e-06
4.9614e-05
9.05149e-05
1.35895e-06
7.52851e-06
1.96846e-06
5.8568e-06
0.00073959
0.000739076
0.000740651
0.000740888
0.000741778
0.000740942
0.000741171
0.000742201
0.000740033
0.000738885
0.000740173
0.000740612
0.000741474
0.000741382
0.000742104
0.000744857
0.000758731
0.000764137
0.000768502
0.000778234
0.000782006
0.000744006
0.000747462
0.000741893
0.000743739
0.000742494
0.000740687
0.000742165
0.000743587
0.000741023
0.000794505
0.000798681
0.000740015
0.000740073
0.000740969
0.000741167
0.000742294
0.000742076
0.000745554
0.000748093
0.000751267
0.000753303
0.000756724
0.000764398
0.000771518
0.000775841
0.000789692
0.000794153
0.000819083
0.000820738
0.000750111
0.000753171
0.000755787
0.000759557
0.000764062
0.00077158
0.000780772
0.000743743
0.000747903
0.000741667
0.000742633
0.00074263
0.000740881
0.000743438
0.000744627
0.000742381
0.000778171
0.000786116
0.000840116
0.000848818
0.000808641
0.000808732
0.000833334
0.000739874
0.000740626
0.000741241
0.00074246
0.000743903
0.000745487
0.000749476
0.000751048
0.000757978
0.000759952
0.000764585
0.000771375
0.000789305
0.000792599
0.000806519
0.000809833
0.000831157
0.000834459
0.000859772
0.000869029
0.000905157
0.000898928
0.000921617
0.000747039
0.000751968
0.000753489
0.00075821
0.000763785
0.000743759
0.000746851
0.000741631
0.000741951
0.00074358
0.000741549
0.000744497
0.000744467
0.000744745
0.000763703
0.000779964
0.000780893
0.000803271
0.000811371
0.000905196
0.000853267
0.000891766
0.0008357
0.0008505
0.000742854
0.000743146
0.000745402
0.000746176
0.000750144
0.000750637
0.000757356
0.000756182
0.000766325
0.000762515
0.000776593
0.000780325
0.000811512
0.000813329
0.000832348
0.000834916
0.000857085
0.000865579
0.000885292
0.000896371
0.000950068
0.000951209
0.00099884
0.00101789
0.000981635
0.00102448
0.00103072
0.00122739
0.000746522
0.000751764
0.000753085
0.000756974
0.00074594
0.000745379
0.000743832
0.000746526
0.000742155
0.000741971
0.000744434
0.000743745
0.000742001
0.000746274
0.000745148
0.000760899
0.00077218
0.00078082
0.00152413
0.00134709
0.00149753
0.00080055
0.000803079
0.000831383
0.000844992
0.000906495
0.000918612
0.00106762
0.000971855
0.000861808
0.000910138
0.000750777
0.000748229
0.000754466
0.000750885
0.000759459
0.000754392
0.000764676
0.000761229
0.000764635
0.000770315
0.000781206
0.000783533
0.000792607
0.000817399
0.000846684
0.000822931
0.000850407
0.000970176
0.000969875
0.000963266
0.00102937
0.00202995
0.00209624
0.00175559
0.00117888
0.00117943
0.00129805
0.00124824
0.00125111
0.001378
0.00138876
0.00187071
0.00156641
0.0035524
0.00332337
0.0033999
0.00210693
0.00299673
0.00280605
0.00246347
0.00212375
0.000746579
0.000750832
0.000750466
0.000755441
0.000744146
0.000743568
0.000743949
0.000745654
0.000742595
0.000742563
0.000742171
0.000746425
0.00074544
0.00074428
0.000743668
0.000760297
0.00077419
0.000803036
0.000782061
0.000798273
0.00366337
0.00367503
0.00284318
0.00272407
0.00214535
0.00111879
0.00136974
0.00156278
0.00192456
0.000839495
0.000840204
0.000849642
0.000848515
0.000892531
0.000904702
0.000988242
0.00097921
0.00105946
0.00363328
0.00342527
0.00126165
0.00328264
0.00288501
0.00263672
0.00148426
0.00179081
0.00189236
0.00263113
0.000780171
0.000767152
0.000783507
0.000769851
0.000786097
0.000774888
0.000789684
0.000789754
0.000798062
0.00079529
0.000810449
0.000809782
0.000849263
0.000875851
0.000929488
0.000902474
0.00112321
0.00133276
0.00110192
0.00173939
0.00142734
0.00132806
0.00163051
0.00146247
0.00143872
0.0025285
0.00305366
0.00350361
0.00304543
0.00267819
0.00227957
0.00180854
0.00167443
0.00184317
0.00201167
0.00259802
0.00190437
0.00204025
0.00348495
0.00355027
0.00361286
0.00369962
0.00357015
0.00340355
0.00329263
0.00330273
0.00138591
0.00136692
0.00284768
0.00297173
0.0015339
0.0016047
0.00191219
0.00254651
0.0020733
0.00240984
0.000746575
0.000749732
0.000749106
0.000758539
0.000743209
0.000742992
0.000742975
0.000743889
0.000745188
0.000746442
0.000745199
0.000744522
0.000743516
0.000743389
0.000743107
0.000758543
0.000774588
0.000775853
0.000795279
0.000798957
0.000827844
0.000794039
0.00349737
0.00374818
0.0033836
0.0037106
0.00365122
0.0027429
0.00332371
0.00262634
0.0021501
0.000840129
0.00192114
0.00117726
0.00174347
0.00137087
0.000880688
0.000877236
0.0009006
0.000890653
0.000924411
0.000911271
0.00103736
0.00102035
0.00117602
0.00369736
0.00339346
0.00375763
0.00113376
0.00120567
0.000952397
0.00323899
0.00280126
0.00265936
0.0018022
0.00114216
0.00157864
0.00062129
0.000829426
0.00386176
0.00129124
0.000686091
0.000845339
0.000778732
0.000878191
0.000864018
0.000903485
0.000940461
0.000879584
0.000869644
0.000945261
0.000950853
0.00115088
0.00122129
0.00165681
0.00132469
0.00174564
0.00135813
0.00132065
0.00176833
0.00148417
0.00160834
0.00186899
0.00223676
0.00184454
0.00156225
0.00203097
0.00181023
0.00215293
0.00203313
0.00274173
0.00314789
0.00354073
0.003353
0.00294907
0.00246944
0.00247839
0.00227129
0.00280541
0.00231876
0.00251939
0.00360723
0.00349878
0.00368526
0.0035558
0.00362717
0.00333171
0.00339068
0.00287829
0.00312563
0.00303496
0.00146097
0.00162586
0.00247872
0.00263939
0.00227162
0.00215567
0.00196178
0.000757588
0.000746429
0.000748846
0.000748619
0.000743112
0.000743739
0.000744834
0.000759348
0.000745965
0.000744883
0.000744501
0.000743737
0.000743855
0.000743355
0.000743828
0.00074391
0.000746843
0.000745109
0.000744489
0.000748486
0.000748046
0.000750369
0.000772618
0.000773804
0.000776798
0.000785694
0.000843963
0.000814773
0.000816548
0.000796158
0.00381293
0.00380604
0.00353976
0.00244428
0.00335141
0.00284326
0.00087579
0.000905676
0.000925613
0.00241426
0.00142226
0.0022703
0.00153874
0.000934743
0.000924257
0.00100432
0.000988685
0.00116057
0.00117442
0.00134168
0.00376712
0.00378166
0.00357366
0.0038783
0.00392571
0.00339516
0.000839978
0.000904529
0.000674477
0.00293969
0.00271254
0.0020788
0.00150881
0.000864547
0.00908552
0.00821656
0.00217111
0.000903673
0.00742645
0.00528197
0.0013914
0.0009085
0.00114789
0.000911538
0.00107593
0.000993576
0.00112748
0.00126866
0.00124378
0.00176842
0.00180313
0.00150685
0.00223732
0.00173153
0.00194983
0.00250708
0.00247205
0.0027018
0.00222156
0.00239225
0.00258336
0.00287063
0.00222859
0.00242738
0.00264739
0.00234684
0.00273322
0.00243581
0.00348786
0.00319321
0.00339276
0.00330598
0.00307408
0.00305367
0.00318716
0.00305985
0.00297717
0.00365271
0.00349435
0.00341757
0.00352646
0.00349078
0.00302807
0.00328117
0.002573
0.00277327
0.00215367
0.00228747
0.000756058
0.000753081
0.000749735
0.000756915
0.000744115
0.000746013
0.000747556
0.000755094
0.00076109
0.000745236
0.000744221
0.000744298
0.000743615
0.000744001
0.000743631
0.00074464
0.000744801
0.000748054
0.000742032
0.000747124
0.00074847
0.000751021
0.00075257
0.000770271
0.000774767
0.000786166
0.000795127
0.000864238
0.000842033
0.000841278
0.000811546
0.00317613
0.00330767
0.0038433
0.000924381
0.000946761
0.000938043
0.00104687
0.000983377
0.00233352
0.00297659
0.00164982
0.00209652
0.00139325
0.00128824
0.0017073
0.0016763
0.00149981
0.0037021
0.00391654
0.00394093
0.00374234
0.0037465
0.00351676
0.00303003
0.00276379
0.00061601
0.00070442
0.00239334
0.00188318
0.00145911
0.000787955
0.00915324
0.0103064
0.00382668
0.00830536
0.010175
0.0098433
0.00550975
0.00340426
0.00942717
0.00895597
0.00456703
0.00252698
0.00352385
0.0020435
0.00293881
0.0018559
0.002517
0.00252358
0.00203753
0.0030009
0.00263613
0.0026169
0.00252028
0.00265097
0.00315494
0.00306931
0.00311569
0.00334496
0.00306542
0.00279493
0.00323993
0.00342006
0.00288887
0.00317154
0.00338472
0.00308276
0.00338527
0.00361077
0.00345826
0.00359909
0.00346825
0.0035704
0.00344448
0.00345063
0.00347556
0.00355075
0.00354218
0.00315454
0.00337512
0.00269573
0.00284756
0.00216581
0.00232815
0.000759238
0.00075684
0.000756165
0.000753958
0.000749326
0.000750109
0.0007539
0.00075991
0.000764721
0.000746978
0.00074182
0.000746827
0.000742311
0.000748223
0.000744794
0.000750469
0.000746286
0.000747634
0.000749189
0.000750655
0.000752757
0.000754043
0.000775581
0.00077732
0.000786655
0.000816265
0.000803077
0.000780765
0.000912121
0.00087253
0.000876172
0.000845835
0.000952368
0.00382939
0.00337791
0.000976976
0.000937167
0.00119355
0.00115818
0.00177538
0.00218148
0.00223245
0.00211176
0.00305077
0.00257653
0.00227362
0.00251528
0.00235008
0.00394772
0.00414209
0.0037764
0.00396549
0.00323679
0.00293327
0.00237419
0.00219108
0.0018898
0.001796
0.000608622
0.00134849
0.00767567
0.00987858
0.00229543
0.00576132
0.00967006
0.0106804
0.00857527
0.00738787
0.0107101
0.0102592
0.00694949
0.00582208
0.00571911
0.00380063
0.00439549
0.0035152
0.00316393
0.00331387
0.00416057
0.00345036
0.00393261
0.00334473
0.00360701
0.0036359
0.00388122
0.0037862
0.00375753
0.00362542
0.00356742
0.00335291
0.00366508
0.0038142
0.00345269
0.00361689
0.00372657
0.00359423
0.00370655
0.00358735
0.00354873
0.00355179
0.00364222
0.00363192
0.00361918
0.00326315
0.00342281
0.00276596
0.0029384
0.00222356
0.00239967
0.000788404
0.000665041
0.000759282
0.000760242
0.000759201
0.000757619
0.000756804
0.000754807
0.000755989
0.000758432
0.000763629
0.000763898
0.000780423
0.000747283
0.000746681
0.000748043
0.000748556
0.000751129
0.000749146
0.000750007
0.000751791
0.000753115
0.000754002
0.000755743
0.000775838
0.000799753
0.000802729
0.000848945
0.000793067
0.000799731
0.000949948
0.000896577
0.000904709
0.000851505
0.00101156
0.00115529
0.000901878
0.0038971
0.00373797
0.00191853
0.00161112
0.0024303
0.00319339
0.00318637
0.00282844
0.00299707
0.00342693
0.00363528
0.00305399
0.00384544
0.00446735
0.0030511
0.00354314
0.0025485
0.00224969
0.00181577
0.00166873
0.00059685
0.000906694
0.00597527
0.00920839
0.00156142