/*--------------------------------*- C++ -*----------------------------------*\
  =========                 |
  \\      /  F ield         | OpenFOAM: The Open Source CFD Toolbox
   \\    /   O peration     | Website:  https://openfoam.org
    \\  /    A nd           | Version:  8
     \\/     M anipulation  |
\*---------------------------------------------------------------------------*/
FoamFile
{
    version     2.0;
    format      ascii;
    class       volVectorField;
    location    "10000";
    object      U;
}
// * * * * * * * * * * * * * * * * * * * * * * * * * * * * * * * * * * * * * //

dimensions      [0 1 -1 0 0 0 0];

internalField   nonuniform List<vector> 
4109
(
(10.1197 0.000524297 0)
(10.1223 0.000554481 3.87752e-21)
(10.124 0.00250725 0)
(10.1218 -0.000216598 -8.35408e-21)
(10.1242 0.00150925 4.01736e-22)
(10.1269 0.00237467 6.68679e-23)
(10.1278 0.00251675 -2.46756e-22)
(10.1334 0.00402016 0)
(10.1288 0.00239407 0)
(10.123 0.000387598 -2.87605e-21)
(10.125 0.00129601 3.49713e-21)
(10.1338 0.00315024 1.53938e-21)
(10.1364 0.00798198 2.24841e-21)
(10.1368 0.00429956 -1.11525e-22)
(10.1346 0.00331795 2.37879e-21)
(10.13 0.00222757 -8.97477e-22)
(10.1243 0.000617061 5.53468e-22)
(10.1267 0.00160862 6.48962e-23)
(10.1356 0.00324093 0)
(10.1404 0.00370211 -3.23816e-21)
(10.159 0.00816978 1.84909e-21)
(10.1427 0.00842933 -5.07774e-21)
(10.1466 0.00601669 -5.76385e-22)
(10.1312 0.00229742 -2.24741e-21)
(10.1285 0.00176072 9.16532e-21)
(10.1256 0.000843229 3.10158e-21)
(10.1329 -0.0021147 0)
(10.1362 -0.00227744 8.96558e-22)
(10.1404 -0.00216497 -6.49338e-23)
(10.136 0.00326631 0)
(10.1419 0.00324151 0)
(10.1465 0.00465191 3.92701e-21)
(10.2209 -1.40993e-05 -1.01494e-21)
(10.1507 0.00705766 -7.10557e-21)
(10.1489 0.00602742 0)
(10.132 0.0023448 -1.61835e-22)
(10.1279 0.00154363 -9.10559e-21)
(10.1266 0.000753462 -5.05306e-21)
(10.1328 -0.00216523 -1.43258e-21)
(10.1249 -0.00161307 0)
(10.1421 -0.00303142 -1.3386e-22)
(10.1392 -0.00332716 4.89505e-22)
(10.1418 -0.00892363 -1.50561e-22)
(10.1365 0.00335021 -2.2763e-21)
(10.1421 0.00324194 0)
(9.48074 0.026099 7.07999e-22)
(10.135 -0.000366199 3.80805e-22)
(10.1489 0.00467336 -1.41326e-22)
(10.1496 0.00403942 6.77326e-22)
(10.2167 -0.00104762 4.62818e-21)
(10.1535 0.00534664 4.26084e-21)
(10.1308 0.00203305 -1.3363e-22)
(10.1292 0.00185368 -8.84779e-21)
(10.1281 0.00102608 1.9877e-21)
(10.1329 -0.00249844 -9.37781e-22)
(10.1266 -0.00185969 0)
(10.119 -0.000356114 0)
(10.1416 -0.00526669 1.24657e-22)
(10.143 -0.00416467 1.53566e-22)
(10.1389 -0.00347018 0)
(10.2401 -0.00275796 -1.44512e-22)
(8.88598 0.014289 0)
(10.1362 0.003313 -7.77482e-21)
(10.1427 0.00324438 0)
(10.1487 0.00440362 6.07844e-22)
(10.2461 -0.000855532 -3.86474e-22)
(9.74636 0.0281039 1.58286e-20)
(10.15 0.00376346 0)
(10.1508 0.00632592 -9.58118e-22)
(10.2301 -0.000410446 -5.83863e-22)
(10.1298 0.00127289 2.66466e-21)
(10.1309 0.00227165 5.90272e-21)
(10.1355 0.00388485 0)
(10.1319 0.00141301 1.20434e-20)
(10.1331 0.00226779 -1.7978e-20)
(10.1339 -0.00284281 9.45822e-22)
(10.1284 -0.00195066 0)
(10.1266 -0.00176013 0)
(10.1205 -0.000466353 0)
(10.2207 0.00676855 1.6957e-22)
(10.1468 -0.00463723 7.98835e-22)
(10.1416 -0.00485377 -7.33937e-22)
(10.1451 -0.00360122 8.74531e-23)
(10.1395 -0.00389126 0)
(10.3543 0.0186206 1.21031e-21)
(10.258 1.39248e-05 0)
(9.37365 -0.0429286 0)
(9.21595 0.0310667 -3.08736e-20)
(8.84227 0.0202513 -1.05149e-21)
(10.1348 0.00273658 3.0407e-21)
(10.1371 0.00330023 7.77798e-21)
(10.1432 0.00334133 0)
(10.1492 0.00450335 -3.18873e-22)
(10.1506 0.00351943 -1.98859e-22)
(10.2875 -0.00495045 0)
(9.99271 0.0122872 0)
(10.1483 0.00595267 0)
(10.2206 0.000554869 3.09678e-22)
(10.1372 0.00394765 6.34547e-22)
(10.1343 0.00322477 -1.18757e-20)
(10.1318 0.00249216 1.35233e-20)
(10.1366 0.00384748 8.54271e-21)
(10.1383 0.00452314 5.44177e-21)
(10.1347 0.00274235 6.33551e-21)
(10.1342 0.00122942 2.4712e-21)
(10.1347 -0.00332797 3.95267e-22)
(10.1305 -0.00263101 3.49758e-22)
(10.1263 -0.00154048 0)
(10.1212 -0.00062443 2.82445e-21)
(10.2091 0.00183193 1.55302e-22)
(10.3295 0.00917275 0)
(10.1451 -0.00536083 -3.19655e-22)
(10.1455 -0.00427848 -3.13026e-23)
(10.1454 -0.00402469 0)
(10.1399 -0.00420309 0)
(9.01876 -0.0380104 -1.43719e-20)
(10.1706 -0.0132032 -1.08003e-21)
(9.90987 -0.0361999 1.72604e-20)
(9.56751 0.0395221 -7.21362e-21)
(9.04843 0.0114507 1.10077e-20)
(8.75678 -0.00318469 8.62087e-21)
(10.2989 0.00207018 1.37877e-22)
(10.1362 0.00331247 -1.39028e-20)
(10.1394 0.00391988 -2.40277e-21)
(10.1441 0.00368737 -7.68005e-22)
(10.1495 0.00479707 0)
(10.1514 0.00387836 6.33523e-22)
(10.1472 0.00612082 -2.02126e-21)
(10.0767 0.00441227 3.38589e-21)
(10.3091 -0.001611 0)
(10.2078 0.000918539 2.35675e-22)
(10.1404 0.00522301 7.03804e-21)
(10.1373 0.00406449 -4.42051e-21)
(10.1387 0.00472782 -8.35544e-21)
(10.1409 0.00583303 5.17658e-22)
(10.1372 0.00155667 0)
(10.1375 0.0038 -5.02318e-21)
(10.1355 -0.00386069 -7.73069e-22)
(10.1307 -0.00281257 0)
(10.1268 -0.00171213 1.06629e-21)
(10.1224 -0.000758705 -2.82416e-21)
(10.2107 -0.00125624 -2.37388e-23)
(10.3261 -0.00305208 0)
(10.1429 -0.00662404 0)
(10.1466 -0.00443196 -3.00878e-22)
(10.1457 -0.00420251 1.5004e-22)
(10.1404 -0.00469318 0)
(9.13904 -0.0346217 -8.23119e-21)
(9.85908 -0.0391122 5.32056e-22)
(9.08637 0.00959464 0)
(9.64725 0.0186304 -3.79563e-21)
(8.76041 0.0225426 0)
(10.2683 -0.00129053 -1.28738e-22)
(10.1399 0.0043912 1.10852e-20)
(10.1395 0.00392027 2.40259e-21)
(10.145 0.00418474 7.30216e-22)
(10.1502 0.00562625 2.3666e-21)
(10.1514 0.00441512 1.11102e-21)
(10.1468 0.00697193 1.23881e-21)
(10.2021 0.00308949 -3.9461e-23)
(10.1214 0.00212862 -3.46252e-24)
(10.3213 -0.00264461 -2.35494e-22)
(10.1441 0.00620418 1.97798e-21)
(10.1402 0.00452685 0)
(10.1416 0.00627526 -3.214e-22)
(10.1449 0.0072696 -1.7067e-21)
(10.1427 0.00640072 -2.12529e-22)
(10.141 0.00538787 0)
(10.1408 0.00178257 0)
(10.1365 -0.00456978 2.96925e-22)
(10.132 -0.00341333 1.15523e-22)
(10.1281 -0.002087 -2.30191e-21)
(10.1232 -0.000649336 -4.76682e-22)
(10.2068 -0.00457486 -1.96934e-23)
(10.3266 -0.00412908 0)
(10.1409 -0.00766809 6.1583e-22)
(10.1483 -0.00454935 -1.47161e-22)
(10.1457 -0.00488657 -5.94432e-22)
(10.1413 -0.00561013 -3.63747e-22)
(9.77439 -0.0296346 -5.55347e-22)
(8.88282 -0.012829 0)
(9.70549 0.0164757 4.04462e-24)
(9.0961 0.00601853 4.7067e-22)
(8.76181 0.0207217 1.06682e-22)
(10.286 0.00326089 1.7707e-22)
(10.1456 0.00444194 -2.54809e-23)
(10.1462 0.0048601 2.54724e-23)
(10.1519 0.00622107 -1.22738e-21)
(10.1479 0.0075882 -1.99795e-21)
(10.1549 0.00410922 -8.85825e-22)
(10.1906 0.00624354 1.06427e-21)
(10.1074 0.00499076 -2.27002e-22)
(10.3172 0.000781456 1.36786e-22)
(10.1469 0.00536137 -9.53969e-22)
(10.1477 0.00636558 4.99146e-22)
(10.146 0.00829856 -5.00996e-22)
(10.1487 0.00754861 -6.87636e-22)
(10.1477 0.00932766 4.96992e-22)
(10.1461 0.00770697 2.48846e-22)
(10.1421 0.00501476 1.87763e-21)
(10.1449 0.000844278 0)
(10.1378 -0.00529144 -6.33035e-22)
(10.1332 -0.00388071 3.06926e-22)
(10.1295 -0.00251143 1.97476e-21)
(10.1248 -0.000893544 3.73193e-22)
(10.1929 -0.00628014 -3.46229e-22)
(10.3171 -0.00337464 -5.87381e-22)
(10.1398 -0.00785645 3.88298e-22)
(10.1495 -0.00533493 2.15253e-23)
(10.1463 -0.00649613 8.68898e-22)
(10.1428 -0.00686376 0)
(9.7613 -0.0191533 -1.31048e-21)
(8.86915 -0.00636903 6.33361e-22)
(9.07551 -0.00155592 0)
(9.68094 0.0117903 5.66076e-23)
(8.75446 0.0197223 -7.36826e-22)
(10.313 0.0116698 1.94489e-22)
(10.1528 0.00532818 0)
(10.1531 0.00567043 -9.37508e-22)
(10.1566 0.00420884 -3.05057e-21)
(10.1737 0.0130569 2.21691e-21)
(10.1067 0.00388944 1.53652e-24)
(10.3164 0.00249881 -4.71133e-22)
(10.1533 0.00704719 1.12075e-21)
(10.1536 0.00847936 2.09421e-21)
(10.1501 0.00887713 2.05877e-21)
(10.1543 0.0102007 -1.4297e-21)
(10.152 0.0101457 -1.04848e-21)
(10.1498 0.0104246 0)
(10.1473 0.0074409 -2.11427e-21)
(10.146 0.00574264 -2.15741e-21)
(10.1494 0.000836533 0)
(10.1392 -0.00591783 -2.90569e-21)
(10.1345 -0.00422898 7.60844e-21)
(10.1312 -0.00287886 3.37903e-21)
(10.1263 -0.000970255 -6.37045e-22)
(10.1769 -0.00776064 -2.50082e-22)
(10.3019 -0.00404555 1.59895e-22)
(10.1509 -0.00736108 -7.57716e-22)
(10.1405 -0.0080024 1.0266e-21)
(10.1407 -0.00630838 0)
(10.1483 -0.00888124 0)
(10.1446 -0.0078821 0)
(9.82311 -0.0166319 2.88394e-22)
(8.87944 -0.00896456 4.82997e-22)
(9.68284 0.00520689 5.30386e-23)
(9.07975 -0.00894042 6.58174e-23)
(8.76072 0.0212528 -6.45573e-23)
(10.3286 0.0174214 -4.8598e-22)
(10.1584 0.00308362 0)
(10.1566 0.00473839 4.97143e-22)
(10.1652 0.0165058 7.45381e-22)
(10.1063 0.00382179 -1.11441e-21)
(10.3181 0.00806147 5.79367e-22)
(10.1571 0.00685701 -3.40242e-22)
(10.1585 0.00753766 -2.72577e-22)
(10.1553 0.0119696 -4.01785e-22)
(10.1598 0.0101002 0)
(10.1567 0.0139856 0)
(10.1542 0.0113761 -3.23263e-22)
(10.1523 0.0113639 2.73239e-21)
(10.1505 0.00816532 -1.12785e-20)
(10.1503 0.00586126 0)
(10.1538 0.000958165 0)
(10.1372 -0.00502905 4.09794e-21)
(10.1344 -0.00404942 -5.56027e-21)
(10.1283 -0.00111107 2.36812e-21)
(10.1395 -0.00566701 4.10156e-21)
(10.1526 -0.0104294 1.87078e-21)
(10.279 -0.00503097 -3.31624e-21)
(10.1513 -0.00928911 -7.04975e-23)
(10.1429 -0.00689653 0)
(10.1463 -0.0085387 0)
(10.1507 -0.0100349 -5.74501e-22)
(8.8851 -0.00586608 2.93747e-22)
(9.86047 -0.0142348 5.12241e-22)
(9.08964 -0.0249107 8.07496e-22)
(9.68728 -0.00845208 -7.78711e-22)
(8.76629 0.0185284 0)
(10.3381 0.0272671 1.05519e-21)
(10.0158 -0.017484 1.28208e-19)
(10.1675 0.0158633 0)
(10.1636 0.0099727 -2.37407e-22)
(10.1129 0.00561121 -1.49807e-20)
(10.3296 0.00658654 -4.26242e-21)
(10.1529 0.013011 1.47753e-21)
(10.1558 0.0114629 -4.6388e-22)
(10.1612 0.0120502 2.90897e-21)
(10.154 0.016679 4.60594e-22)
(10.1632 0.0145052 -8.08978e-23)
(10.1585 0.0158275 -1.12342e-22)
(10.1568 0.0125601 0)
(10.1552 0.0122781 -6.11299e-21)
(10.1543 0.00894809 2.28007e-20)
(10.1549 0.00632599 0)
(10.1556 0.00430237 7.05816e-21)
(10.1572 -0.000647296 0)
(10.129 -0.000618791 0)
(10.135 -0.00351876 2.40065e-21)
(10.1319 -0.00246719 -3.65266e-21)
(10.1405 -0.0055568 2.06543e-22)
(10.1444 -0.00710905 1.59782e-21)
(10.1387 -0.0145112 0)
(10.2596 -0.00886781 1.44048e-21)
(10.1558 -0.0112525 1.25202e-21)
(10.148 -0.00901231 6.01469e-22)
(10.1531 -0.0103933 0)
(9.88878 -0.00618418 1.22169e-21)
(8.8676 -0.000117051 -6.92577e-22)
(9.10584 -0.029798 4.0876e-20)
(9.74105 -0.0149914 -2.82123e-20)
(8.78123 0.0160336 3.20814e-20)
(10.3336 0.0299943 -1.02766e-21)
(10.0116 -0.00270798 -2.12295e-19)
(10.0142 -0.0198766 5.54194e-20)
(10.0108 -0.0138459 -6.2311e-20)
(10.022 -0.0211863 -8.2515e-20)
(10.0172 -0.00651531 1.8821e-19)
(10.028 -0.0266707 7.31148e-20)
(9.97294 0.0171535 2.77601e-20)
(10.3405 -0.0152597 1.95486e-20)
(10.2798 -0.0294678 -1.85258e-20)
(10.1918 -0.000114383 -1.50771e-21)
(10.2033 0.00181358 -5.93543e-21)
(10.158 0.0114334 -2.93065e-22)
(10.1574 0.0177935 0)
(10.1617 0.0209365 -1.70243e-21)
(10.1652 0.0160282 0)
(10.161 0.0176567 0)
(10.1612 0.00788919 4.40246e-20)
(10.1599 0.0137784 1.11503e-21)
(10.1588 0.0130659 1.90506e-20)
(10.1589 0.00966434 -1.91867e-20)
(10.1589 0.00368818 -6.82897e-21)
(10.1583 -0.00141417 0)
(10.1604 0.000790643 0)
(10.1565 -0.00255128 1.27342e-20)
(10.1319 -0.00168331 -5.35751e-22)
(10.1355 -0.00321096 -7.51818e-21)
(10.1426 -0.00595257 -4.80798e-21)
(10.1462 -0.00745531 -5.17484e-21)
(10.1497 -0.00935527 -7.53309e-22)
(10.1389 -0.0197945 0)
(10.2597 -0.0109539 -2.95788e-21)
(10.1589 -0.0122208 -1.12694e-21)
(10.1552 -0.0102459 -1.64684e-23)
(9.89172 0.000612017 7.65865e-21)
(8.76562 0.00651084 5.71241e-22)
(8.97734 0.0202607 2.60265e-20)
(10.3267 0.0113447 9.24538e-22)
(10.0008 -0.00197631 -5.6189e-20)
(10.0042 -0.00162417 5.60726e-20)
(10.007 -0.00904344 0)
(10.0193 -0.0246201 -2.26902e-20)
(10.0113 -0.024627 8.5376e-20)
(10.0069 -0.0176253 7.21186e-20)
(10.1498 -0.0052853 0)
(10.1551 -0.0109791 7.12023e-21)
(10.1567 -0.0250558 5.73316e-21)
(10.0258 -0.00783263 -2.88633e-21)
(10.0314 -0.0193433 -1.90212e-20)
(10.0242 -0.0120515 4.78666e-20)
(10.0341 -0.0269427 -6.51055e-21)
(10.0258 -0.0304481 2.76692e-20)
(9.5177 0.055345 -6.07643e-20)
(10.3523 -0.0333521 -4.39344e-21)
(10.3281 0.00760349 2.70547e-20)
(10.273 -0.00105372 -9.82547e-21)
(10.1691 0.0134171 -1.72743e-22)
(10.1652 0.00724698 1.74815e-21)
(10.1565 0.0225331 -1.33257e-20)
(10.1694 0.0209698 0)
(10.1676 0.0183127 0)
(10.164 0.019739 -1.10135e-21)
(10.1639 0.0102043 0)
(10.1635 0.0149988 0)
(10.1629 0.0135885 -6.51097e-21)
(10.1657 0.00202397 0)
(10.1645 0.0046144 -3.19117e-20)
(10.1608 -0.00498689 -7.69179e-20)
(10.1647 -0.00158586 5.20107e-20)
(10.1657 -0.0165255 0)
(10.1735 -0.0339464 1.61295e-20)
(10.1346 -0.00158284 7.96209e-21)
(10.1383 -0.00393484 -4.08972e-22)
(10.1454 -0.00665263 -1.99975e-20)
(10.148 -0.00788907 1.12961e-20)
(10.1514 -0.00974195 2.1299e-22)
(10.1569 -0.0104433 -1.63165e-22)
(10.1441 -0.0206467 8.44785e-22)
(10.2491 -0.0144515 1.0603e-21)
(10.1609 -0.011717 -4.73499e-22)
(9.9329 -0.0196995 -1.18308e-20)
(8.57838 0.00820421 1.82515e-20)
(10.0004 -0.00286527 -1.16444e-19)
(10.003 -0.00951528 4.94077e-20)
(10.0163 -0.030811 -2.80323e-20)
(10.0093 -0.0286158 1.95712e-21)
(10.0052 -0.0203413 -1.37684e-19)
(10.1443 -0.0173725 -1.29339e-20)
(10.1378 -0.00783697 1.10808e-20)
(10.1448 -0.0341346 0)
(10.1839 -0.0562247 -3.06201e-20)
(10.1624 -0.0451584 -1.68189e-20)
(10.0401 -0.0164012 1.67932e-22)
(10.0392 -0.0109812 -2.69461e-20)
(10.0414 -0.0308656 -1.91602e-22)
(10.0335 -0.0353867 -6.2884e-21)
(10.0237 -0.0376732 -2.91155e-20)
(8.65196 0.0442902 -4.48664e-20)
(9.83378 0.103529 1.29697e-20)
(10.3641 0.0416155 -1.30677e-20)
(10.3117 0.0226785 1.04002e-21)
(10.1779 0.01682 4.74781e-21)
(10.1679 0.0100072 2.83507e-21)
(10.1714 0.00907148 9.34459e-21)
(10.1591 0.0225975 -2.5607e-21)
(10.17 0.023166 2.82384e-21)
(10.1703 0.0206175 0)
(10.1676 0.0223325 -9.10159e-21)
(10.1674 0.0134747 -1.04486e-20)
(10.1678 0.0161213 0)
(10.1736 0.00194321 -2.25502e-20)
(10.1722 0.00572985 -1.12631e-20)
(10.1733 -0.00329989 4.96756e-20)
(10.1709 -0.00945927 -1.8535e-20)
(10.1811 -0.0231476 -1.13895e-20)
(10.1951 -0.0411522 4.78666e-20)
(10.1378 -0.00203546 -4.80672e-21)
(10.1416 -0.00475202 8.92167e-21)
(10.1632 -0.0128254 2.23166e-21)
(10.1506 -0.00864817 6.59309e-21)
(10.1495 -0.00850763 0)
(10.153 -0.0103052 1.78226e-21)
(10.1584 -0.0107078 9.93976e-23)
(10.1539 -0.0103396 0)
(10.1536 -0.0178193 -1.83297e-21)
(10.1495 -0.0180187 -1.55534e-21)
(10.2878 -0.00592435 1.35447e-21)
(10.0371 -0.0552166 3.24005e-20)
(10.0008 0.00226642 -1.47038e-20)
(10.0003 -0.00386098 0)
(10.0021 -0.012046 3.14057e-20)
(10.0143 -0.0363964 -6.99868e-21)
(10.0068 -0.0331689 0)
(10.0036 -0.0233768 1.0467e-20)
(10.2207 -0.0690903 -5.43896e-20)
(10.1206 -0.010523 5.42854e-23)
(10.1008 -0.0129398 0)
(10.1302 -0.0240827 -5.99118e-21)
(10.1345 -0.0432593 -1.15207e-21)
(10.0575 -0.0100831 0)
(10.0784 -0.00945783 0)
(10.1675 -0.0701214 1.45812e-20)
(10.148 -0.0551946 -2.93298e-22)
(10.051 -0.0260755 1.03782e-19)
(10.0433 -0.0388999 4.96579e-20)
(10.0332 -0.0448646 1.26972e-20)
(10.0211 -0.0446425 0)
(8.45732 -0.00195889 3.56724e-20)
(9.41747 0.108959 0)
(10.2836 0.0579943 1.03868e-21)
(10.3183 0.0251923 -1.20729e-21)
(10.1959 0.0181076 6.3385e-21)
(10.1722 0.0124986 1.20621e-20)
(10.177 0.0102279 0)
(10.1604 0.0241023 3.90726e-21)
(10.1718 0.0254224 -8.26131e-22)
(10.1732 0.0234596 -3.56485e-21)
(10.1721 0.0251143 -1.69252e-21)
(10.1729 0.0168228 2.04129e-22)
(10.1839 0.00153016 -1.30359e-20)
(10.1807 0.00643182 1.46221e-20)
(10.1855 -0.0051629 1.35475e-20)
(10.1849 -0.0134603 -1.2285e-20)
(10.201 -0.0269565 -4.79264e-20)
(10.228 -0.045581 3.4086e-24)
(10.1416 -0.00257639 -2.67118e-21)
(10.151 -0.0071738 -2.94499e-20)
(10.1463 -0.00598795 1.84847e-20)
(10.1726 -0.0182969 -2.10536e-21)
(10.1648 -0.0129054 -6.38217e-22)
(10.1547 -0.011091 -1.69085e-21)
(10.1565 -0.0118345 0)
(10.1597 -0.0112394 1.30356e-21)
(10.1569 -0.0120238 8.48994e-21)
(10.1589 -0.0128616 0)
(9.66486 -0.0878007 -8.21218e-20)
(9.38427 -0.0905865 1.47282e-20)
(10.1402 -0.0081669 0)
(10.3265 0.0027692 5.35568e-21)
(10.0004 0.00279354 1.43918e-19)
(10.0022 0.00844522 -1.37241e-19)
(10.0046 0.00103769 0)
(10.0003 -0.0045706 -1.95996e-20)
(10.0014 -0.0137975 7.17969e-20)
(10.0115 -0.0425346 5.91697e-21)
(10.0038 -0.0352198 0)
(10.0013 -0.024538 -1.65424e-19)
(10.2051 -0.0912948 5.43636e-20)
(10.2663 -0.067401 2.28044e-20)
(10.1189 -0.0326519 -2.71443e-21)
(10.1015 -0.0267134 0)
(10.1186 -0.0514659 4.49015e-21)
(10.082 -0.0232791 0)
(10.065 -0.0273006 -8.67262e-20)
(10.147 -0.0803473 1.58602e-20)
(10.1315 -0.0602038 4.18668e-21)
(10.0554 -0.0402261 -2.0027e-20)
(10.0446 -0.051857 -1.16823e-20)
(10.0301 -0.0533003 4.03059e-20)
(10.0165 -0.0520268 -3.82591e-20)
(8.1608 -0.0231628 5.05759e-21)
(9.11405 0.0769339 3.3197e-21)
(9.05077 -0.0677657 6.77921e-21)
(10.2357 0.0382715 -2.33309e-21)
(10.3408 0.0272969 2.15879e-21)
(10.2081 0.0225591 -2.42108e-21)
(10.1787 0.0164834 0)
(10.1848 0.0145558 -1.95163e-20)
(10.1621 0.0273338 -4.61986e-21)
(10.1736 0.0282458 7.70926e-21)
(10.1779 0.0266329 1.51694e-21)
(10.1772 0.0273319 1.11731e-20)
(10.1908 0.0105977 1.95098e-20)
(10.1962 0.00463738 0)
(10.2005 -0.00371278 0)
(10.2024 -0.0143313 0)
(10.2291 -0.0241493 0)
(10.2668 -0.0398318 -4.70882e-20)
(10.3057 -0.063391 -7.36527e-20)
(10.1458 -0.00304334 2.67105e-21)
(10.1519 -0.00552291 8.23461e-21)
(10.1666 -0.0137506 2.30808e-21)
(10.1658 -0.0139371 1.7535e-22)
(10.1611 -0.0122729 -1.56588e-21)
(10.1627 -0.0135248 -1.82555e-21)
(10.165 -0.0149102 0)
(10.1587 -0.0117221 0)
(10.1617 -0.0138052 0)
(10.1705 -0.0044672 0)
(10.3662 -0.013747 3.99233e-20)
(10.2982 -0.0295131 -3.02761e-20)
(10.0006 0.0048418 3.59104e-20)
(10.0023 0.0108639 -2.80898e-20)
(10.0049 0.0140308 -6.99179e-20)
(10.0137 0.00793748 0)
(10.0073 0.0109467 0)
(9.99993 -0.00490119 5.48458e-21)
(10.001 -0.015427 4.30303e-20)
(10.0078 -0.0459643 -1.27537e-21)
(10.0002 -0.039633 -2.96306e-20)
(9.99941 -0.0301412 2.68045e-19)
(10.1823 -0.107157 1.50423e-22)
(10.2517 -0.0954127 4.59807e-20)
(10.3318 -0.104482 -7.23282e-20)
(10.0714 -0.044746 -6.48946e-20)
(10.1023 -0.0508247 2.04357e-20)
(10.0892 -0.0406188 2.96593e-20)
(10.125 -0.086222 0)
(10.1146 -0.0631125 -1.94591e-21)
(10.0586 -0.0588241 -1.60959e-20)
(10.0414 -0.0623333 -4.43479e-20)
(10.0231 -0.0623622 2.24778e-20)
(10.0111 -0.0568738 -1.42091e-20)
(10.3284 -0.0677791 0)
(8.03798 -0.0144617 -4.75406e-21)
(8.96732 0.0594008 2.26191e-21)
(8.85635 -0.0372709 -5.15763e-21)
(10.2085 0.0304502 7.2153e-22)
(10.3522 0.0291118 -7.24637e-22)
(10.2156 0.030805 0)
(10.1841 0.0284746 0)
(10.1922 0.027772 2.00609e-20)
(10.1774 0.0321387 0)
(10.1639 0.035294 -8.00946e-23)
(10.1836 0.0299112 -1.47272e-21)
(10.201 0.0245115 -2.00493e-20)
(10.2101 0.0182354 0)
(10.2187 0.00815217 0)
(10.2256 -0.00593491 0)
(10.2611 -0.0151241 0)
(10.2944 -0.0339359 3.68168e-20)
(10.3373 -0.048592 2.15106e-19)
(10.3657 -0.0675909 1.72874e-20)
(10.1492 -0.00212715 0)
(10.1556 -0.00581682 -8.33593e-21)
(10.1675 -0.0131775 0)
(10.1667 -0.0146842 5.8866e-21)
(10.1676 -0.0170096 -1.54074e-20)
(10.168 -0.0192285 4.70861e-21)
(10.1679 -0.0166697 -1.60954e-20)
(10.1626 -0.012326 2.59331e-21)
(10.1643 -0.013559 0)
(10.167 -0.0177255 2.37644e-20)
(10.1791 -0.0113261 0)
(10.2687 0.0176664 1.65611e-20)
(10.0006 0.00602307 -6.63671e-20)
(10.024 0.00792267 2.02473e-20)
(10.0034 0.0164444 0)
(10.0063 0.0204351 -1.19888e-21)
(10.0114 0.014734 5.69474e-20)
(9.99982 -0.00455088 0)
(9.99906 -0.0147623 -4.78939e-20)
(10.0024 -0.0501893 3.29372e-20)
(9.99526 -0.0388637 0)
(9.99592 -0.0297386 0)
(9.99822 -0.0211595 -1.81799e-21)
(10.1556 -0.117076 -1.86131e-21)
(10.3757 -0.143245 1.01194e-19)
(10.2208 -0.121512 -2.32092e-21)
(10.2941 -0.132134 -7.43144e-20)
(10.105 -0.0876878 5.36448e-20)
(10.0759 -0.0604689 0)
(10.0949 -0.0660254 -2.41774e-20)
(10.0558 -0.0714697 0)
(10.0311 -0.0740438 4.97531e-21)
(10.0152 -0.0694446 4.29468e-20)
(10.0038 -0.0620497 -1.71481e-20)
(10.2778 -0.0441475 0)
(7.97167 -0.0142814 2.82142e-21)
(8.87354 0.0583633 -3.676e-21)
(8.77232 -0.0338059 -7.59694e-22)
(10.1707 0.0248109 9.35331e-22)
(10.3547 0.032166 1.25963e-21)
(10.2176 0.0455132 6.09923e-22)
(10.2025 0.0342561 2.18837e-20)
(10.1921 0.0326825 -1.06429e-20)
(10.184 0.0375206 1.28399e-21)
(10.1676 0.0486868 -1.38097e-21)
(10.2142 0.0323616 -2.88737e-20)
(10.2268 0.0271631 1.71394e-20)
(10.2517 0.00459562 0)
(10.2397 0.0185355 0)
(10.2846 -0.00719099 -1.31585e-20)
(10.3523 -0.00679733 7.82392e-20)
(10.3227 -0.0105135 0)
(10.3868 -0.027326 -2.17925e-19)
(10.4095 -0.0981524 -1.39791e-19)
(10.1534 -0.00199407 4.57355e-21)
(10.1592 -0.00540088 -2.47578e-21)
(10.1663 -0.0119432 1.78733e-20)
(10.1676 -0.0190224 4.09203e-21)
(10.1708 -0.0178554 1.33784e-20)
(10.1709 -0.0223879 -1.94352e-21)
(10.1721 -0.0177074 3.79287e-22)
(10.1683 -0.0143638 -2.19834e-21)
(10.1693 -0.0195405 8.63679e-21)
(10.1625 -0.0250322 0)
(10.243 -0.0113508 -2.60939e-22)
(10.0002 0.00575635 -4.06297e-20)
(10.0016 0.0153373 8.29564e-20)
(10.0388 0.00743856 -2.93709e-20)
(10.0282 0.0195777 -5.34841e-20)
(10.0054 0.0232431 3.27399e-20)
(10.0107 0.0237568 -2.45645e-20)
(10.0205 0.0216448 5.22411e-20)
(9.99812 -0.0115509 0)
(9.99964 -0.0037048 0)
(9.99563 -0.0495916 -1.67619e-20)
(9.99021 -0.0373702 -5.57181e-20)
(9.99263 -0.0285495 1.70704e-20)
(9.99557 -0.0198525 1.85982e-21)
(10.1294 -0.120833 -1.74432e-20)
(10.4297 -0.19448 -1.74377e-19)
(10.1871 -0.141247 -4.67343e-21)
(10.3357 -0.183373 2.66105e-20)
(10.2545 -0.170418 3.02855e-20)
(10.0896 -0.0917615 -4.33927e-20)
(10.0717 -0.0773369 -1.30001e-20)
(10.106 -0.120127 2.37867e-20)
(10.0438 -0.0869511 -7.22265e-20)
(10.0215 -0.0847363 0)
(10.0055 -0.0762347 -1.33758e-20)
(9.99428 -0.0625251 -3.59413e-21)
(10.3033 -0.045679 5.32614e-22)
(7.93226 -0.0224394 0)
(8.78239 0.0616102 1.11701e-21)
(8.69495 -0.0299482 0)
(10.1348 0.0194303 -1.31093e-21)
(10.3542 0.0365274 -5.83447e-22)
(10.2088 0.0612089 7.79248e-23)
(10.2077 0.0498797 0)
(10.1942 0.0438917 9.02929e-22)
(10.1761 0.0610209 1.59368e-20)
(10.2256 0.0439414 0)
(10.24 0.0380002 3.38936e-20)
(10.2713 0.0132967 -4.40398e-21)
(10.256 0.028959 -3.89984e-20)
(10.3098 0.0022668 -2.54797e-21)
(10.3587 0.0308457 9.68462e-20)
(10.3963 0.00744838 -4.45689e-20)
(10.4345 -0.0478763 1.62709e-19)
(10.4674 -0.13838 4.00245e-20)
(10.157 -0.00187728 0)
(10.1639 -0.00512268 0)
(10.1708 -0.0110325 -2.42695e-20)
(10.1724 -0.0147332 6.4769e-22)
(10.1684 -0.0231192 -9.43881e-21)
(10.1721 -0.0205537 0)
(10.1739 -0.0264489 -2.41111e-21)
(10.1746 -0.0191676 -3.81899e-21)
(10.1736 -0.0204021 3.5141e-21)
(10.169 -0.0270818 4.3317e-21)
(10.2607 -0.0136546 1.12136e-22)
(10.0001 0.00433651 3.33711e-20)
(10.0004 0.0131135 8.38179e-20)
(10.0018 0.0206532 -1.2257e-19)
(10.0037 0.0245471 -4.44599e-20)
(10.057 0.0073376 0)
(10.0413 0.0194836 3.42453e-20)
(10.0335 0.0301905 -4.13107e-20)
(10.0089 0.0291007 -1.43382e-20)
(10.0168 0.0302443 0)
(10.0272 0.0311033 -8.78605e-20)
(10.0774 0.00695332 -4.27025e-21)
(9.99704 -0.00805068 5.01435e-20)
(9.99954 -0.00229294 0)
(9.99985 0.00369587 0)
(9.98795 -0.0473295 -2.0733e-20)
(9.98541 -0.0315906 4.39294e-20)
(9.99237 -0.0154341 -5.40403e-20)
(9.98821 -0.023511 0)
(10.1493 -0.155274 8.10002e-24)
(10.3835 -0.243618 1.50396e-20)
(10.2114 -0.194174 5.91315e-21)
(10.2897 -0.220058 3.13168e-22)
(10.0817 -0.115741 3.29387e-20)
(10.0606 -0.0989183 5.96848e-20)
(10.1123 -0.160275 0)
(9.98327 -0.0602478 4.40274e-20)
(10.0332 -0.103696 -7.75513e-22)
(10.0094 -0.0952434 0)
(9.99235 -0.0781894 -1.65513e-20)
(10.2868 -0.04215 -8.79479e-23)
(7.90012 -0.0266311 4.52457e-22)
(8.69869 0.0681054 -6.94866e-22)
(8.64874 -0.0268941 -1.25095e-21)
(10.2082 0.0708708 0)
(10.1219 0.00705044 1.14821e-22)
(10.3479 0.0396353 -8.06466e-23)
(10.2063 0.067303 -2.3486e-20)
(10.1901 0.0704517 3.65544e-21)
(10.2487 0.0628038 -7.70432e-21)
(10.2332 0.0612564 2.86379e-20)
(10.2906 0.0373334 -5.52377e-20)
(10.3239 0.0460267 -1.01178e-19)
(10.2712 0.0407488 7.2136e-20)
(10.3827 0.0483861 0)
(10.4462 0.00866389 9.75439e-20)
(10.4959 -0.0759439 0)
(10.1591 -0.0016072 4.30714e-21)
(10.1713 -0.00412414 4.45314e-20)
(10.1755 -0.00928144 0)
(10.1774 -0.0144113 -3.76478e-22)
(10.1783 -0.0210635 -1.04948e-20)
(10.1698 -0.0294015 0)
(10.1746 -0.0226189 0)
(10.1776 -0.0295839 -3.5336e-22)
(10.1794 -0.0213502 1.01764e-20)
(10.1701 -0.0342254 1.10944e-21)
(10.2637 -0.0191961 -1.05338e-21)
(10.1563 0.000498587 -5.24072e-21)
(10.1517 0.00160778 0)
(9.99937 0.0130705 1.34873e-20)
(9.99925 0.0213919 0)
(10.0029 0.0287733 4.6694e-20)
(10.0068 0.0324857 1.43789e-20)
(10.0576 0.020375 0)
(10.0441 0.0315154 5.74838e-20)
(10.0345 0.0369053 3.79217e-21)
(10.0144 0.0367315 0)
(10.0243 0.0380355 0)
(10.0758 0.0219172 -4.76222e-22)
(10.0983 0.00594264 -4.13053e-21)
(10.1178 0.00348907 0)
(10.1334 0.000149329 4.6123e-20)
(10.1468 0.00504461 -4.57173e-20)
(9.99927 0.000634166 0)
(9.99571 -0.00264222 0)
(9.99966 0.00198784 0)
(9.99823 0.0115162 0)
(9.97161 -0.05147 -2.15664e-20)
(9.98003 -0.0395401 5.48337e-20)
(9.98185 -0.0249659 0)
(9.98895 -0.00928089 5.35094e-20)
(10.1641 -0.213855 1.99071e-20)
(10.3306 -0.287067 2.33601e-20)
(10.2387 -0.251824 -2.14988e-20)
(10.0514 -0.123404 2.82091e-21)
(10.0774 -0.139366 -6.27003e-22)
(10.097 -0.191792 1.03997e-20)
(10.1189 -0.229883 -3.5904e-20)
(9.96075 -0.0655833 0)
(9.97674 -0.0760385 -2.64417e-21)
(10.0186 -0.118602 0)
(9.99124 -0.0998457 0)
(10.3061 -0.0435547 0)
(8.60761 0.0738087 -1.72915e-22)
(7.85601 -0.0309045 -2.51243e-22)
(8.71527 -0.039443 -1.01537e-20)
(10.3332 0.0514033 0)
(10.1663 -0.00310705 -4.3244e-21)
(10.2188 0.0957153 -4.00327e-21)
(10.2414 0.0727176 -1.4213e-20)
(10.3203 0.0856115 0)
(10.2789 0.0801843 0)
(10.3615 0.0805508 -3.92506e-20)
(10.4432 0.0642774 4.5936e-21)
(10.5128 -0.00722702 2.49181e-20)
(10.1693 0.000860938 -5.32156e-20)
(10.1803 -0.00709324 0)
(10.1829 -0.0128552 1.44184e-20)
(10.1842 -0.0208695 3.77502e-22)
(10.1847 -0.023106 1.82365e-21)
(10.1725 -0.036761 -1.15728e-21)
(10.1785 -0.0255512 1.52991e-21)
(10.1826 -0.0324807 0)
(10.2663 -0.0251399 2.97676e-22)
(10.1719 -0.0416378 -7.30623e-22)
(10.1568 0.0133387 2.2166e-20)
(10.1669 0.00522226 8.69735e-21)
(10.1612 0.00984194 -2.83029e-21)
(9.99798 0.0212352 1.64319e-20)
(9.99972 0.0292952 -3.19668e-20)
(10.005 0.0372211 -1.6144e-20)
(10.0118 0.0417046 1.36998e-20)
(10.0586 0.033561 0)
(10.0451 0.0409671 2.21925e-20)
(10.0334 0.0450308 -3.58742e-21)
(10.0219 0.0456708 1.12346e-21)
(10.0746 0.0364195 -1.73635e-20)
(10.0962 0.0270878 1.48587e-20)
(10.0917 0.0378176 -7.68045e-21)
(10.1582 0.0227875 1.34666e-20)
(10.1155 0.0254728 -1.24371e-23)
(10.1475 0.023857 -1.16072e-21)
(10.1332 0.023847 3.99706e-21)
(9.99665 0.00850098 0)
(9.99262 0.00360607 0)
(9.99564 0.0196084 6.11128e-20)
(9.9854 0.0024329 -1.07262e-19)
(9.96078 -0.0417318 -5.67955e-20)
(9.97243 -0.0311502 2.55014e-20)
(9.98089 -0.0125429 1.70528e-20)
(9.94678 -0.0509428 0)
(10.1844 -0.276126 0)
(10.2717 -0.324369 1.52403e-20)
(10.0367 -0.155618 -2.3424e-20)
(10.0557 -0.210051 3.13971e-20)
(10.0613 -0.168736 3.06134e-20)
(10.0654 -0.24803 -1.58745e-20)
(10.1286 -0.293442 5.89868e-21)
(9.96897 -0.0962937 -4.44384e-20)
(9.94791 -0.0813687 5.28927e-20)
(9.99178 -0.12963 -3.85472e-20)
(10.3891 -0.0544113 2.718e-21)
(8.51394 0.103535 8.97326e-21)
(7.78541 -0.0326875 -4.76276e-20)
(8.72366 -0.0980831 -5.93361e-21)
(10.3603 0.0609197 1.70823e-20)
(10.2567 0.0167734 -1.85901e-20)
(10.2521 0.108518 4.2433e-20)
(10.263 0.0818782 -2.32584e-20)
(10.3417 0.117994 1.85407e-19)
(10.4263 0.118225 3.13495e-19)
(10.5174 0.0633916 -2.36902e-19)
(10.1814 -0.00177267 0)
(10.1886 -0.00960101 -3.02346e-20)
(10.1911 -0.0191319 -1.0881e-22)
(10.1918 -0.0239498 -1.18389e-20)
(10.1893 -0.0342376 1.18731e-21)
(10.1781 -0.0446912 3.86922e-22)
(10.1844 -0.0294445 5.85581e-22)
(10.233 -0.0325778 -2.88104e-22)
(10.1693 -0.0499356 0)
(10.1672 0.0145939 0)
(10.1816 0.00470515 0)
(9.99304 0.0283385 1.02016e-19)
(9.99683 0.0297972 -1.683e-20)
(10.001 0.0385806 4.99112e-20)
(10.0089 0.0477094 0)
(10.0193 0.0526485 -4.36286e-20)
(10.059 0.0454616 -6.50064e-21)
(10.0451 0.0510397 -1.46078e-21)
(10.0316 0.0546961 1.48763e-20)
(10.0744 0.0484758 1.10677e-20)
(10.0909 0.0553947 1.73516e-20)
(10.1066 0.0473755 -6.16588e-21)
(10.1684 0.0239621 5.9281e-21)
(10.1639 0.0307867 1.43456e-20)
(10.1218 0.0443143 1.12343e-21)
(10.1538 0.0350591 -2.51411e-21)
(10.1396 0.039977 -1.28574e-20)
(9.99257 0.0164921 5.81637e-20)
(9.98734 0.0117307 7.49545e-20)
(9.98909 0.0248807 -2.21284e-19)
(9.97702 0.00085122 -1.78259e-20)
(9.93091 -0.0667589 1.64533e-20)
(9.95032 -0.0236125 -2.77455e-19)
(9.96443 -0.0122909 8.90235e-20)
(9.93411 -0.0260311 0)
(9.98671 0.0317104 4.49382e-20)
(10.2074 -0.352904 -3.59837e-21)
(9.99988 -0.170986 0)
(10.0114 -0.202532 6.72859e-20)
(10.0204 -0.249331 -3.90383e-20)
(10.0699 -0.303598 0)
(10.1383 -0.371317 -3.59248e-21)
(9.94631 -0.162141 -9.43322e-20)
(9.95317 -0.12924 3.22645e-20)
(9.92724 -0.119696 -1.34236e-19)
(10.4166 -0.095642 7.47941e-21)
(8.32341 0.223343 3.27843e-21)
(7.78357 -0.0421669 2.98757e-19)
(8.31876 -0.228052 -1.7031e-19)
(10.3276 0.14973 -2.00301e-21)
(10.2874 0.143041 -1.61584e-19)
(10.3539 0.148093 8.21777e-20)
(10.3952 0.167444 -1.85518e-19)
(10.5061 0.13633 -7.82396e-21)
(10.1937 -0.00420952 1.59148e-20)
(10.1984 -0.0150414 -3.40648e-23)
(10.2006 -0.0227654 1.69182e-20)
(10.1986 -0.0345459 -1.12467e-21)
(10.1849 -0.0540617 -7.51951e-22)
(10.1927 -0.0333419 1.85686e-21)
(10.2111 -0.0520006 1.6288e-22)
(10.1762 -0.060493 2.00636e-20)
(10.1818 0.0133012 0)
(10.1974 0.00372306 -1.81563e-20)
(9.99125 0.0370879 -3.72122e-20)
(9.9965 0.0391335 -3.33464e-20)
(10.0037 0.0512548 0)
(10.0162 0.0614306 -2.78319e-20)
(10.0295 0.0631406 1.58956e-20)
(10.0593 0.0565705 6.24928e-21)
(10.0439 0.0635594 0)
(10.0759 0.0615575 -3.12379e-21)
(10.0945 0.0631627 -1.7488e-21)
(10.1133 0.0627342 4.49898e-21)
(10.1812 0.0243664 -1.0348e-20)
(10.1752 0.0349623 0)
(10.1314 0.058921 -5.1206e-22)
(10.1642 0.0447204 -1.05667e-21)
(10.1492 0.0525883 -7.13447e-21)
(9.97908 0.011479 -3.24849e-20)
(9.98208 0.0238841 0)