/*--------------------------------*- C++ -*----------------------------------*\
  =========                 |
  \\      /  F ield         | OpenFOAM: The Open Source CFD Toolbox
   \\    /   O peration     | Website:  https://openfoam.org
    \\  /    A nd           | Version:  8
     \\/     M anipulation  |
\*---------------------------------------------------------------------------*/
FoamFile
{
    version     2.0;
    format      ascii;
    class       surfaceScalarField;
    location    "0.003";
    object      phi;
}
// * * * * * * * * * * * * * * * * * * * * * * * * * * * * * * * * * * * * * //

dimensions      [0 3 -1 0 0 0 0];

internalField   nonuniform List<scalar> 
1107
(
0.000313477
-0.000630608
0.000620805
-0.000303674
0.000614237
-0.00030076
-2.58277e-05
0.000640065
0.000297266
0.000543295
-9.2609e-05
-0.000747952
-0.000934216
0.000600873
-7.85626e-05
0.00067354
0.000287204
-4.75826e-05
-1.35555e-05
-3.33934e-05
0.000673458
-3.79869e-05
1.64243e-05
-7.10465e-05
0.000153284
-0.000117322
-7.39484e-05
0.000282323
-0.000876991
-0.00119475
0.000542853
-0.000156432
0.000678743
0.000719002
-7.88557e-05
3.82479e-05
0.000760788
-8.00333e-05
4.09447e-06
-3.52528e-05
-9.46108e-06
0.000711706
0.000790974
2.76292e-05
-5.78157e-05
5.65217e-05
-0.000109882
-6.3962e-05
2.22543e-05
-3.67791e-05
0.000173684
-0.000101024
-0.000182542
0.000228927
-0.000129191
0.000259889
-0.000907953
-0.00137707
0.00044221
-0.00026046
0.000646881
0.000738314
-0.000138427
0.000783391
-0.000125111
4.65679e-06
-1.76552e-05
-4.80429e-06
-1.77691e-05
0.000799512
9.23092e-06
0.000739335
0.000813605
-8.80289e-05
0.000823564
-2.77288e-05
0.000815362
-2.16665e-05
2.98692e-05
2.44484e-05
-4.96753e-05
-3.87351e-05
9.51638e-06
-2.18471e-05
-6.22027e-05
-8.84966e-05
0.00023599
-0.000148837
-0.000269694
0.000315053
-0.000208254
0.000236871
-0.000829772
0.000305651
-0.00144585
-0.000380851
0.000562601
0.000719688
-0.000211234
0.000763804
-0.000169227
2.12832e-06
-1.02672e-05
-2.67597e-06
6.862e-05
0.000792364
-4.56225e-05
0.000789629
-1.17831e-05
0.000748566
0.000792098
-0.000116323
0.000803119
-3.87494e-05
0.000797967
3.50211e-05
0.00077816
8.84271e-05
-8.65e-05
0.000745018
0.000119642
4.07538e-05
-7.20174e-05
-3.09391e-05
2.00054e-05
-1.79867e-05
7.68316e-06
-9.5248e-06
-9.2797e-05
-0.000144536
-4.9605e-05
-0.000115209
0.000423295
-0.000498495
0.00064582
-0.000294453
0.000687718
-0.000211125
1.66734e-06
-4.25135e-06
-1.00864e-06
0.000760706
-5.48421e-05
0.000765941
-2.19344e-05
0.000736783
0.00067991
-0.000104795
0.000169903
0.000710625
-0.00013923
0.000720642
-4.87668e-05
0.000720583
3.50807e-05
0.000707237
0.000101773
0.000674339
0.00015254
3.59838e-05
-2.76845e-05
-5.79043e-05
2.01127e-05
-1.5068e-05
9.81308e-06
-7.68712e-06
3.81432e-06
-3.52605e-06
0.000507016
-0.000378174
0.000543283
-0.000247392
8.29489e-07
-1.26652e-06
-1.79156e-07
0.00021921
0.000586391
-0.000125691
0.000711802
-5.58919e-05
0.000737173
-2.60744e-05
0.000714848
0.000595658
0.000248584
0.000481187
0.000333681
0.000320098
-0.001203
0.00136408
0.00055768
-0.000153627
0.000566545
-5.76322e-05
0.000574865
2.67612e-05
0.000571388
0.00010525
0.000539283
0.000184645
-2.86153e-05
-4.5135e-05
4.60658e-05
-1.60989e-05
-2.75844e-05
-7.90558e-06
-1.58804e-05
-3.06052e-06
-8.37111e-06
-6.38051e-07
-3.689e-06
-8.17208e-07
0.00105683
0.000250027
-0.000986761
0.000335757
-0.000952361
0.000643945
-5.78338e-05
0.000703409
-2.2128e-05
0.000688774
0.000452441
0.000335427
0.000329409
0.000456713
0.000289782
0.00140371
0.000330069
0.00101655
-3.73135e-05
-6.78628e-05
6.00413e-05
-2.10023e-05
-4.38956e-05
-1.02442e-05
-2.66385e-05
-3.90549e-06
-1.47098e-05
-8.12357e-07
-6.78213e-06
-1.62956e-06
0.000126777
0.000196394
-7.31442e-05
0.000172247
-0.000823251
0.000341249
-0.000649665
0.000661765
-1.61892e-05
0.000666646
0.000253898
0.000202948
-2.20351e-05
-8.1588e-05
3.57603e-05
-1.24966e-05
-5.34341e-05
-6.19773e-06
-3.29374e-05
-2.43425e-06
-1.84733e-05
-5.59891e-07
-8.65649e-06
-2.18945e-06
0.000199539
0.000119859
-0.000123005
0.00013822
-3.91177e-05
0.000106948
-0.000588949
0.000337169
-0.000325069
0.000650457
0.000166133
0.000287304
-2.57437e-06
-8.28065e-05
3.79283e-06
-1.5764e-06
-5.44321e-05
-8.46078e-07
-3.36677e-05
-3.92886e-07
-1.89265e-05
-1.27423e-07
-8.92195e-06
-2.31687e-06
8.53079e-05
8.32603e-05
-4.87088e-05
7.96672e-05
-6.44514e-05
8.64047e-05
-1.85748e-05
5.70875e-05
-0.000308868
0.000325387
0.000115551
0.00013589
1.42012e-05
-7.3121e-05
-2.38867e-05
7.71891e-06
-4.79499e-05
3.65636e-06
-2.96051e-05
1.36222e-06
-1.66323e-05
2.54189e-07
-7.81392e-06
-2.06268e-06
6.81443e-05
5.42297e-05
-3.91138e-05
5.50798e-05
-2.41215e-05
4.74494e-05
-2.54961e-05
4.37261e-05
-5.21341e-06
1.65195e-05
7.69455e-05
0.00010675
-4.65397e-05
4.8639e-05
7.48463e-05
1.46661e-05
-2.83272e-05
-5.94599e-05
7.36092e-06
-4.06447e-05
3.31394e-06
-2.55581e-05
1.21493e-06
-1.45333e-05
2.42323e-07
-6.84131e-06
-1.82036e-06
3.40181e-05
-2.63281e-05
3.53358e-05
-1.93697e-05
3.26522e-05
-9.3242e-06
2.33374e-05
-5.10746e-06
1.13061e-05
-3.20807e-05
2.92549e-05
5.14647e-05
-1.71019e-05
3.02177e-05
-3.86739e-05
-6.94038e-06
-2.46948e-05
-1.59983e-06
-1.21819e-05
-3.42019e-06
2.00588e-05
-1.81213e-05
2.19473e-05
-1.29397e-05
2.07095e-05
-7.42707e-06
1.59279e-05
-1.91466e-06
6.19864e-06
1.65307e-05
-2.01484e-05
3.28726e-05
-9.48735e-06
2.81599e-06
1.09912e-05
-4.31982e-06
-7.11314e-06
3.04562e-05
-3.5525e-05
-1.05333e-05
9.27857e-06
-1.12996e-05
1.85517e-05
1.11598e-05
-1.12493e-05
1.27154e-05
-8.88939e-06
1.27428e-05
-4.97294e-06
1.00446e-05
-1.54378e-06
4.28398e-06
-7.85846e-06
2.20707e-06
-3.83596e-06
-5.92277e-06
1.49284e-06
7.24591e-06
-4.29105e-06
6.59622e-06
-1.24349e-05
1.01297e-05
4.97076e-06
-6.43097e-06
1.07388e-05
6.10262e-06
-6.24242e-06
6.93652e-06
-5.47046e-06
7.26929e-06
-3.4159e-06
6.14186e-06
-1.07021e-06
2.7402e-06
-5.97295e-06
2.43194e-06
-4.31745e-06
-4.88272e-06
1.16702e-06
-3.48287e-06
6.8466e-07
-2.32888e-06
2.5227e-06
6.40237e-06
-3.03532e-06
3.30609e-06
-1.56461e-05
1.53753e-05
2.46568e-06
-3.71212e-06
6.2172e-06
3.17247e-06
-3.50084e-06
3.69853e-06
-3.00444e-06
3.89522e-06
-2.09639e-06
3.46289e-06
-7.36925e-07
1.66999e-06
-3.81451e-06
2.93055e-06
-5.08899e-06
-3.72299e-06
1.27219e-06
-2.86267e-06
5.46817e-07
-1.87697e-06
2.32752e-07
-1.03836e-06
5.25745e-07
-7.87608e-07
4.09371e-06
1.16023e-06
-1.84309e-06
3.14854e-06
1.45895e-06
-1.99861e-06
1.86037e-06
-1.66268e-06
2.02885e-06
-1.13806e-06
1.8229e-06
-4.56402e-07
9.33067e-07
-2.00766e-06
2.53064e-06
-4.33749e-06
-2.34902e-06
1.5566e-06
-2.17649e-06
5.86008e-07
-1.53564e-06
2.0548e-07
-8.52789e-07
4.71825e-08
-2.61864e-07
1.57754e-06
8.55649e-07
-1.27296e-06
5.831e-07
-9.67235e-07
7.96223e-07
-9.34468e-07
9.88525e-07
-6.22363e-07
9.2854e-07
-2.43705e-07
4.76664e-07
-9.7921e-07
1.41277e-06
-2.44122e-06
-1.16499e-06
1.34663e-06
-1.3483e-06
7.28404e-07
-1.16487e-06
2.15246e-07
-6.91033e-07
4.37221e-08
-2.14683e-07
2.24243e-06
1.14974e-06
-1.81464e-06
9.31327e-07
5.07415e-07
2.73036e-07
-4.44049e-07
3.95293e-07
-3.41236e-07
4.37287e-07
-1.31111e-07
2.32958e-07
-1.50332e-06
-9.26064e-07
1.45018e-06
-4.89194e-07
7.36995e-07
-6.26258e-07
6.24593e-07
-7.06013e-07
2.69542e-07
-5.21345e-07
4.55589e-08
-1.70962e-07
2.50093e-06
4.02275e-07
-6.60769e-07
1.42299e-06
6.58063e-07
5.21117e-07
2.59332e-07
1.1219e-07
-1.60947e-07
1.63706e-07
-6.76554e-08
1.01847e-07
2.20253e-06
-4.73713e-07
7.72109e-07
-1.17612e-06
1.87533e-06
-8.84185e-07
-5.31058e-07
-2.26888e-07
3.37628e-07
-3.07463e-07
2.26045e-07
-3.07816e-07
5.60134e-08
-1.25403e-07
1.59937e-06
2.25909e-07
8.53184e-07
3.25997e-07
2.67153e-07
1.04367e-07
3.40136e-08
-3.12552e-08
3.41913e-08
1.39359e-06
-2.67923e-07
-6.66709e-07
-4.93762e-07
-2.64182e-07
-9.18339e-08
1.22002e-07
-1.25711e-07
4.39404e-08
-6.93885e-08
9.67411e-07
1.11681e-07
4.6649e-07
1.2666e-07
1.15012e-07
2.33668e-08
2.93587e-09
8.32467e-07
-1.32978e-07
-3.28002e-07
-2.52517e-07
-1.03497e-07
-2.70774e-08
2.33693e-08
-2.5447e-08
5.33608e-07
4.45638e-08
2.1379e-07
2.78822e-08
2.63023e-08
4.53543e-07
-5.29132e-08
-1.26976e-07
-1.08078e-07
-2.24953e-08
-2.07767e-09
2.47654e-07
1.07e-08
5.41843e-08
2.07174e-07
-1.24336e-08
-2.7879e-08
-2.45728e-08
6.48847e-08
5.24515e-08
0.000390989
-0.00122076
-0.00105486
0.000195985
-0.000340521
0.000569534
-0.000373549
0.00029984
0.000982583
-0.000682743
0.000774328
-0.000446432
0.00111816
-0.00156459
6.3301e-05
-0.000435194
-0.000844127
0.000161384
9.89649e-05
-0.000214174
-0.000241556
4.03807e-05
-9.8285e-05
-0.000173794
0.000169135
-0.000410692
0.000659992
-0.000490857
0.000286443
-0.000557684
0.0012484
-0.00108702
-0.000316191
0.000701439
-0.00101763
0.000266245
-0.000111929
0.000447444
-0.00100513
-0.000639573
-5.22192e-05
0.000151455
-0.000203674
-2.23389e-05
-0.00043303
-5.42644e-05
-0.000378766
0.000661107
-0.000715371
0.00017025
-0.000834878
0.000528131
-0.0011677
-0.000489499
0.000470219
-0.000959719
-0.00035829
0.000110899
-0.000353335
0.000199708
-0.000242437
0.000246313
-0.00108119
-0.00092139
0.000494507
0.000909203
0.00151105
2.0089e-05
0.000315337
-0.000315835
0.000258203
-0.000116127
-0.000359236
0.000379325
-0.000174591
-0.000287255
0.000314016
-2.90527e-05
-0.000350978
0.000176387
-0.000245728
6.82883e-05
-0.000143633
5.87111e-05
-0.000202344
-0.000320055
0.000110966
-0.000431021
-0.000604405
1.09902e-05
-0.000615395
-0.0010702
0.000268038
-0.00118943
0.000691681
-0.000934117
0.000367753
-0.00048388
-0.000566365
-0.00019203
-0.000878171
-0.00138146
-0.000123722
0.00103293
0.000332991
0.000648329
0.000562468
0.000948585
0.00159539
0.00115153
0.000617787
3.05421e-05
0.000177576
0.00044021
0.000556901
0.000673855
-0.000702907
0.000189975
0.000323365
0.000233536
0.000499752
0.000345821
0.000153932
0.000414109
-0.000288798
-0.000166583
2.60041e-05
-0.000192587
-0.000405017
-1.12343e-05
-0.000393782
-0.00062663
-0.00020129
-0.00042534
-0.00107946
0.00112029
-0.000930311
0.000553921
-0.000827537
-0.00116447
0.000234159
0.00049011
-0.00131765
-0.000589352
0.00102995
0.000565442
0.00106049
-0.000507076
0.00079438
0.000644457
0.0012099
0.000642923
0.000417571
0.00108313
0.000682817
0.000400316
0.000916352
0.00095598
-3.96274e-05
0.00110991
0.000821113
-0.000343357
-0.000188795
-1.25716e-05
-0.000176223
-0.000406354
-0.000194024
-0.00021233
-0.000619364
-0.000219673
-0.000399691
-0.000809024
0.00106919
-0.00083503
-0.000248457
0.000853523
-0.00119688
1.84924e-05
0.000585615
-0.000834073
-0.000223409
-0.000297084
0.000432975
0.000497295
-0.000425546
0.000922842
0.000784353
0.00120192
0.00102292
0.000179003
0.00142324
0.00138361
-0.000283514
0.000834013
-0.000550498
0.00148039
-9.6784e-05
-0.00020011
0.000274837
-0.000498246
-6.57441e-05
-0.000134366
-0.000278074
-7.69305e-05
-0.000201144
-0.000476622
-0.000201785
0.000725481
0.000108532
-0.000743974
-9.00993e-05
-0.000299628
0.00040816
-0.00043574
-6.25057e-05
0.000299154
-0.000389253
-0.000136586
-0.000483134
0.000183506
-0.000167446
0.000274196
0.000265529
3.18834e-05
-0.000274407
0.000242524
-0.00045125
-2.50238e-05
0.00015721
-0.000132186
-0.000299431
-0.000262637
0.000528166
0.000660204
0.000839207
-0.000130464
-0.000320787
-0.000680962
0.00052041
0.000318798
0.000423626
-0.000257337
-0.000162693
0.000193971
-0.000256476
-0.000324145
0.000122361
-0.000130175
-7.96166e-05
-8.30762e-05
-0.00028076
-0.000158399
-0.000535012
0.000145759
-0.000126853
-0.000265121
0.000138269
-8.16151e-05
-0.000237332
-1.91443e-05
0.000373918
-0.000228159
-0.000310918
0.000229303
-6.8394e-05
0.00018714
-2.99299e-05
0.000118746
-0.000122431
9.25015e-05
3.7136e-05
7.53576e-05
-0.000112494
-8.52955e-05
-0.000217481
-0.00010486
-0.000112621
-8.21547e-05
0.000157001
0.000192041
-7.59724e-05
0.000268014
0.000452193
0.000159366
-0.000264227
-0.000140065
-0.000460852
0.000197515
0.000254679
-0.000258976
-0.000201876
0.000516312
-4.13769e-05
9.28416e-05
0.000115624
6.98869e-05
-0.000152963
-1.0427e-05
-0.000229842
9.96668e-05
-0.000248986
-6.12576e-05
-9.17054e-05
-0.000219657
-0.00011999
0.000226541
2.76181e-06
-0.00036481
0.00013665
-0.00025746
8.47423e-06
-0.00012081
-0.000156518
0.00015928
-0.00017152
1.50024e-05
-5.27747e-05
-0.000131286
7.85117e-05
-3.8785e-05
-8.30702e-05
4.42852e-05
-7.71258e-06
-5.80224e-06
3.09363e-05
-2.51341e-05
5.18894e-06
-4.29653e-06
3.52328e-05
5.80474e-05
-6.2344e-05
5.03349e-05
-9.29167e-06
-5.30523e-05
-0.000121785
-3.02369e-06
-2.21104e-05
-5.6076e-05
-2.64302e-05
-2.85611e-05
-9.32242e-05
-0.000141182
-2.90187e-05
-0.000112164
-0.000293245
-7.9651e-05
0.000195275
0.000188363
0.000443042
-0.000173054
-0.000120192
0.00037493
6.81119e-05
-1.20014e-05
4.4874e-05
8.08402e-05
3.25299e-06
7.75872e-05
0.000198528
3.29125e-05
-0.000124618
5.76141e-06
-4.26334e-05
-8.19846e-05
-0.000162624
-0.000154149
-0.000118091
-3.60583e-05
-0.000238901
-7.96208e-05
0.000106197
-2.76857e-05
-0.0001212
4.15791e-05
4.27663e-05
7.56854e-06
8.70516e-05
5.93659e-05
3.61188e-05
-8.8599e-07
4.36874e-05
9.24372e-06
-1.65003e-05
-3.95757e-05
-0.000109724
-7.51958e-06
-1.89107e-05
-4.70953e-05
-2.27466e-05
-5.33715e-06
2.38888e-05
3.95369e-05
-3.79286e-05
-7.17959e-05
-0.000150092
-5.8493e-05
-9.15991e-05
-0.000178685
0.000142768
5.57596e-05
0.00021088
3.21957e-05
-2.59731e-05
6.551e-05
5.16141e-05
0.000107374
6.31563e-05
-1.9469e-05
0.000122522
-0.000128043
4.60583e-05
-0.000164101
-1.05333e-05
-4.0937e-06
1.97255e-06
2.19163e-05
1.27113e-05
-5.49555e-06
-4.15997e-05
-7.72915e-05
-9.82943e-06
-1.29172e-05
-5.14292e-05
-1.72347e-05
-1.41605e-05
3.60768e-05
5.13495e-05
-2.50575e-05
-5.2234e-05
-0.000116657
-8.44609e-05
4.41611e-06
4.69334e-05
0.00011179
2.7329e-05
1.14473e-05
2.46294e-05
-3.33121e-06
9.5484e-06
9.3801e-06
2.08274e-05
2.89862e-07
9.25853e-06
3.4384e-06
-3.11518e-05
-2.02774e-05
-8.33858e-05
-1.33482e-05
-3.88649e-06
-3.36256e-05
-8.97546e-06
5.97865e-06
1.86508e-05
5.2912e-05
5.08143e-05
2.09776e-06
-7.81433e-05
-5.24251e-06
9.09617e-06
1.17313e-05
2.7747e-05
4.2319e-06
5.02663e-06
1.59632e-05
2.16543e-06
7.19206e-06
-2.69908e-05
-6.63473e-06
-3.22333e-05
1.73501e-06
-6.07248e-06
-7.24045e-06
-1.38752e-05
2.37259e-05
4.02109e-06
2.58236e-05
3.00376e-05
-4.21404e-06
-2.1957e-06
-3.68892e-07
-5.70358e-06
-2.81008e-06
1.30707e-05
2.8925e-06
1.70917e-05
5.37741e-06
8.26991e-06
-4.03574e-07
-5.3e-06
-1.42788e-05
-1.64745e-05
1.72329e-05
-1.41175e-07
-1.30189e-05
-3.45556e-06
-1.35989e-06
-6.65988e-06
7.60915e-06
7.46798e-06
8.24009e-06
-4.78454e-06
)
;

boundaryField
{
    movingWall
    {
        type            calculated;
        value           uniform 0;
    }
    fixedWalls
    {
        type            calculated;
        value           uniform 0;
    }
    frontAndBack
    {
        type            empty;
        value           nonuniform List<scalar> 0();
    }
    defaultFaces
    {
        type            empty;
        value           nonuniform List<scalar> 0();
    }
}


// ************************************************************************* //
