/*--------------------------------*- C++ -*----------------------------------*\
  =========                 |
  \\      /  F ield         | OpenFOAM: The Open Source CFD Toolbox
   \\    /   O peration     | Website:  https://openfoam.org
    \\  /    A nd           | Version:  8
     \\/     M anipulation  |
\*---------------------------------------------------------------------------*/
FoamFile
{
    version     2.0;
    format      ascii;
    class       volScalarField;
    location    "9000";
    object      epsilon;
}
// * * * * * * * * * * * * * * * * * * * * * * * * * * * * * * * * * * * * * //

dimensions      [0 2 -3 0 0 0 0];

internalField   nonuniform List<scalar> 
4109
(
0.117448
0.131116
0.120838
0.129917
0.135544
0.131548
0.136733
0.120697
0.145285
0.145065
0.143158
0.147245
0.11992
0.134621
0.139704
0.150934
0.151627
0.150008
0.151989
0.141144
0.121852
0.130567
0.13173
0.158827
0.160151
0.165311
0.120026
0.133843
0.11853
0.160473
0.149187
0.143095
0.133003
0.131282
0.137942
0.163078
0.164096
0.176555
0.137234
0.119608
0.134419
0.137028
0.122401
0.166565
0.154522
0.552333
0.255189
0.14888
0.143821
0.13269
0.138997
0.170776
0.178451
0.192216
0.150473
0.137548
0.117319
0.135044
0.139388
0.147682
0.144051
0.67643
0.177315
0.163067
0.157187
0.221593
0.552426
0.151027
0.143484
0.143882
0.207829
0.184805
0.236317
0.22742
0.224585
0.15588
0.155615
0.144013
0.134713
0.14429
0.140625
0.143545
0.149292
0.152086
0.182427
0.249285
0.590737
0.800642
0.809949
0.188968
0.184677
0.169517
0.163118
0.157877
0.197333
0.421871
0.15129
0.144307
0.237085
0.220717
0.209838
0.242332
0.248356
0.245916
0.251896
0.165712
0.161279
0.155799
0.14121
0.154483
0.207857
0.1472
0.151788
0.154738
0.161324
0.819479
0.303247
0.401423
0.566769
0.895463
0.84723
0.251613
0.206332
0.194385
0.178849
0.172039
0.16567
0.157374
0.429082
0.167514
0.154808
0.241512
0.227104
0.260361
0.251883
0.27434
0.256568
0.1721
0.169807
0.169232
0.155096
0.160977
0.211131
0.152189
0.157548
0.162785
0.166816
0.798448
0.474358
0.916142
0.598823
0.925748
0.28456
0.214462
0.20367
0.186773
0.17915
0.172491
0.166056
0.159943
0.415075
0.153459
0.235695
0.221824
0.269644
0.248224
0.279166
0.283649
0.300085
0.182712
0.178224
0.17704
0.16393
0.169622
0.226579
0.159219
0.165603
0.168918
0.176763
0.556404
0.972837
0.579414
1.00952
0.984629
0.313514
0.197387
0.207055
0.188714
0.172258
0.180784
0.170829
0.473495
0.161006
0.219138
0.230588
0.263616
0.24429
0.278158
0.297222
0.296313
0.338056
0.190365
0.188161
0.189473
0.177753
0.17134
0.228543
0.16579
0.171663
0.177975
0.183813
0.602663
1.05387
1.07881
0.665637
1.09677
0.310499
0.198463
0.210152
0.184846
0.178406
0.496835
0.171575
0.221466
0.234392
0.257909
0.247681
0.273648
0.29623
0.311801
0.335234
0.375038
0.202439
0.196973
0.196604
0.189102
0.178953
0.241263
0.179824
0.172461
0.211963
0.185977
0.194914
0.591062
1.15094
0.698656
1.19337
1.19332
0.328733
0.200874
0.208845
0.190318
0.547325
0.171193
0.224061
0.234164
0.26209
0.25034
0.277485
0.289834
0.315064
0.338442
0.362229
0.422392
0.213115
0.205304
0.202634
0.222026
0.18114
0.245411
0.184168
0.225183
0.203814
0.196864
1.24214
0.615551
1.29075
0.766201
1.32885
0.338865
3.64985
0.202939
0.215065
0.577115
0.178517
0.22362
0.237584
0.263058
0.249451
0.279758
0.293522
0.308307
0.33749
0.364643
0.402126
0.412958
0.47906
0.210091
0.219834
0.203514
0.23434
0.236736
0.186846
0.255191
0.199698
0.216297
0.207085
0.639649
1.36582
1.41534
0.77075
1.44498
0.353613
4.40738
3.87582
4.60697
3.18424
3.9592
2.78974
0.751778
0.187304
0.231469
0.238885
0.253837
0.252521
0.267541
0.280595
0.29401
0.311392
0.42399
0.327688
0.361238
0.397176
0.478459
0.541667
0.510046
0.617859
0.231728
0.225024
0.247544
0.251647
0.227121
0.19941
0.271779
0.207346
0.219421
0.698607
1.52079
1.50325
0.357025
9.80429
7.17486
4.72242
3.39321
4.36372
5.47821
0.724371
0.718617
0.810411
3.02079
2.61985
2.79068
2.54537
2.91515
1.38707
0.219007
0.305738
0.287316
0.27407
0.464694
0.28491
0.295614
0.311872
0.330418
0.42252
0.349641
0.387942
0.533201
0.479672
0.589861
0.576224
0.721148
0.806613
0.248663
0.251309
0.265024
0.264859
0.241316
0.231316
0.209935
0.269349
0.223009
0.789561
1.81157
10.1273
7.33936
3.60962
4.35717
5.52844
0.787731
0.840137
0.920336
0.843768
0.898342
2.13266
2.32175
2.24651
2.52334
2.99091
2.06886
1.18226
0.318536
0.328556
0.292159
0.454859
0.47188
0.310679
0.308337
0.329142
0.351503
0.414618
0.373177
0.542322
0.509188
0.595643
0.647278
0.729696
0.766512
0.276542
0.265319
0.232793
0.293498
0.281782
0.254491
0.245423
0.319437
0.236784
0.224544
0.330621
0.867949
9.84249
11.2001
7.49129
3.58597
4.45296
5.70717
0.830642
1.00247
1.18956
0.939052
1.02763
1.82949
1.47208
0.933203
1.00112
1.9927
2.18588
2.5446
2.95255
2.48322
2.13122
0.605363
0.345419
0.325259
0.44396
0.473825
0.325191
0.32834
0.349738
0.374207
0.400022
0.553597
0.513289
0.605108
0.660802
0.698565
0.758244
0.302253
0.319377
0.295074
0.248683
0.249057
0.270971
0.286962
0.259836
0.334764
0.307204
1.72592
2.49483
0.241295
0.235146
10.2517
7.29755
7.04484
11.4057
7.76151
3.63366
4.54875
5.91913
0.912761
0.805852
1.07055
1.20277
1.13502
1.4044
1.66362
1.0369
1.12286
1.908
2.14635
2.52699
3.06518
3.27101
3.08751
3.87754
0.64182
0.409812
0.348308
0.429296
0.462463
0.350668
0.346666
0.370389
0.400717
0.498965
0.540404
0.586574
0.639251
0.693383
0.739234
0.773232
0.33738
0.335561
0.262452
0.261986
0.276741
0.293221
0.31276
0.358075
0.32708
0.264367
0.361007
0.458447
10.664
7.53975
6.47381
4.31498
4.3917
11.5843
7.60072
3.71551
4.14697
4.95762
1.00671
0.876719
0.838714
1.61549
1.25986
1.35025
1.15896
1.24828
1.86929
2.11717
2.63669
3.13222
0.944687
3.87791
3.92217
4.47723
0.854622
0.455532
0.386807
0.429776
0.462374
0.371135
0.37331
0.398424
0.498412
0.539005
0.584337
0.635693
0.680297
0.713925
0.770654
0.782891
0.376176
0.37787
0.283054
0.282784
0.298944
0.315768
0.331774
0.385257
0.349434
0.332948
0.283577
0.302663
10.4477
3.29171
6.16611
5.39711
4.35535
11.7404
7.70914
3.51002
4.33029
5.22202
6.51452
1.11569
0.862337
0.976294
0.867314
1.29764
1.56127
1.41971
1.87386
2.27455
2.71537
2.99761
0.994298
4.6366
4.81285
5.59026
0.964649
0.532889
0.421958
0.460092
0.42606
0.396671
0.401678
0.49467
0.535264
0.627015
0.578133
0.667742
0.709718
0.711792
0.759966
0.823952
0.421507
0.407905
0.417834
0.304297
0.303464
0.330321
0.34941
0.372164
0.36464
0.306068
0.349445
10.9353
7.30173
2.47821
2.7169
4.9653
4.35675
3.59392
8.10778
11.6782
3.65402
4.28726
5.04612
6.20935
1.23862
0.892837
1.06792
0.919245
0.979825
1.46353
1.57339
1.37164
1.94505
2.32959
2.63831
3.13335
1.47384
5.55475
5.89861
6.51477
1.20794
0.610836
0.444737
0.463044
0.429006
0.429569
0.502864
0.534684
0.617386
0.580803
0.681161
0.711793
0.749131
0.798986
0.85711
0.474619
0.456775
0.45167
0.400131
0.330298
0.332456
0.351184
0.365318
0.381392
0.330771
0.412314
11.7556
8.623
6.4432
5.50839
1.92308
2.16862
2.59469
4.1624
3.56008
3.08902
1.56117
8.09184
11.4655
11.6747
3.6375
4.28798
5.73851
5.04662
1.19567
0.943882
1.04419
0.973717
1.51542
1.70893
1.33248
3.13816
2.00076
2.24162
2.7031
1.59783
6.75799
7.27325
8.13392
0.473392
1.44747
0.631184
0.466641
0.46657
0.554011
0.531775
0.636349
0.643753
0.598478
0.691275
0.752918
0.811263
0.537123
0.500035
0.485586
0.428654
0.414887
0.351334
0.347284
0.371955
0.394283
0.355376
0.440594
0.617021
0.702066
8.36457
6.67936
5.12869
4.42389
1.77569
2.19127
2.62916
3.42764
2.94203
1.4646
1.24731
1.07337
0.860721
0.799973
10.8309
7.80641
10.8555
8.13343
3.16462
3.67723
4.21667
5.60405
1.17294
0.996242
1.0563
1.72703
1.52246
1.33607
1.26962
2.69359
2.68788
1.97713
2.33248
1.95472
9.22472
8.37606
9.37218
0.665301
1.55647
0.501425
0.557449
0.639107
0.583256
0.686676
0.732801
0.786203
0.541475
0.52055
0.462879
0.440205
0.418149
0.380345
0.375292
0.39912
0.513444
0.38419
0.741298
0.619381
0.680215
6.409
5.41963
4.19619
3.58392
1.79217
2.24733
2.47653
2.82513
1.57428
1.23732
1.30377
0.760503
1.04561
0.825783
0.900504
8.01285
6.67113
6.2525
5.15083
3.0025
3.52707
4.60312
2.63039
1.13366
1.0573
1.64541
1.40684
1.532
1.36024
1.22197
2.36244
2.40651
2.00183
1.80382
11.3052
10.5274
11.3647
1.07534
1.74618
0.552423
0.325703
0.635582
0.700511
0.759612
0.561334
0.49899
0.479268
0.452833
0.426529
0.403018
0.39636
0.462755
0.401868
0.691125
0.616146
5.04642
5.20355
4.42532
3.43665
2.91191
1.92208
2.12035
2.36741
1.64355
1.45871
1.28052
0.768993
0.819099
1.128
0.891279
0.984568
5.79421
5.17641
5.13595
4.29851
2.32756
3.11933
3.40962
2.69069
4.32648
1.1215
1.72947
1.56774
1.47289
1.30098
1.19121
1.80687
1.99252
2.03127
1.8497
15.1851
13.6375
15.6483
3.07314
0.617831
0.901232
0.6814
0.743258
0.54147
0.513411
0.483969
0.459919
0.433655
0.429523
0.471754
0.43781
0.67673
0.587682
4.25038
4.32604
3.54113
2.79965
2.41798
1.82953
2.01411
1.58802
1.39072
1.23524
0.73914
0.801274
1.10345
0.887542
0.980629
4.27265
4.13339
3.34532
1.89332
2.0972
2.38375
2.6044
3.55148
1.50034
1.37258
1.25155
1.64509
1.58003
1.79791
2.64453
20.8832
27.3956
9.45291
0.677883
1.11674
0.739187
0.560258
0.525762
0.4952
0.462855
0.458289
0.506342
0.641493
0.605448
3.51507
3.45936
2.81686
2.32353
2.0518
1.73467
1.51063
1.32712
1.17599
0.701314
0.770843
1.04884
0.849662
0.94195
3.40615
3.40176
2.78919
1.95536
2.1278
2.30828
1.81823
2.82758
1.41158
1.30883
1.5097
1.54038
1.67697
4.70888
46.1634
45.4975
21.3384
0.754548
2.34217
0.566036
0.536535
0.494037
0.502083
0.618576
0.66322
0.617523
2.83005
2.81309
2.33797
1.98757
1.76637
1.53934
1.35298
1.20186
0.722681
0.795329
1.07356
0.873576
0.967579
2.78428
2.77102
2.32925
1.85494
1.98324
1.68678
2.347
1.35724
1.43021
1.45601
1.52722
1314.48
10.0955
77.9384
81.0462
51.3568
1482.11
0.57955
0.541244
0.556469
0.553663
0.848756
0.669739
0.63024
2.30199
2.32658
1.99986
1.72339
1.50583
1.33252
1.18733
0.734069
0.800822
1.07025
0.880699
0.966507
2.21336
2.23581
1.98269
1.68309
1.53065
1.95586
2.00959
1105.67
1207.61
23.4049
139.889
140.026
1581.99
1368.84
1951.45
0.594757
0.541555
0.613937
0.610642
1.41825
0.685712
0.625129
2.01128
2.00478
1.7267
1.50891
1.33495
1.1959
0.749651
0.819722
1.08029
0.982877
0.896165
1.97308
1.75619
1.5274
1.74006
1.81119
1.77997
765.53
976.055
1147.99
53.4517
1532.87
1304.37
1833.52
1961.73
0.621454
0.617011
0.683089
3.05351
0.699391
0.634821
1.67086
1.68281
1.48697
1.32162
1.19071
0.75048
0.83217
1.08565
0.991899
0.909469
1.76057
1.57274
1.623
1.65276
1.63803
1.61587
713.747
612.117
896.931
1138.73
1897.53
1679.22
1524.23
1292.64
1911.21
1981.05
0.660361
0.68119
0.756251
0.681864
0.700272
0.740031
1.54804
1.37307
1.2523
1.13419
0.81067
0.822034
1.06373
0.964323
0.918442
1.57055
1.5248
1.52905
1.50797
1.48163
557.993
507.701
864.085
1195.18
2190.35
1965.6
1473.52
1725.41
1572.56
1349.45
2039.1
2022.6
0.695943
0.723839
0.739428
0.761956
0.822636
1.45043
1.33284
1.23496
1.13748
0.853113
0.878209
1.06158
0.990508
0.932845
1.42033
1.38876
1.34338
2450.89
445.522
441.079
884.222
1369.73
2212.49
2138.58
1260.12
1496.02
1817.22
1713.79
1528.26
2269.06
2098.69
0.726041
0.752578
0.787714
0.820085
1.3213
1.27178
1.20439
1.13311
0.86599
0.909176
1.06607
1.00829
0.953796
2895.42
2421.24
366.625
407.028
990.232
1881.88
2276.87
2426.79
1155.72
1260.38
1550.02
1968.64
2040.73
2051.85
2678.23
2237.04
3321.94
3008.92
2396.84
314.354
408.3
1333.81
4454.63
2421.05
2930.65
989.031
1163.3
1290.34
1654.63
2223.66
2896.12
4638.67
3463.29
2480.32
3374.54
3730.26
3055.32
2413.93
292.759
487.432
3079.13
2703.24
3777.51
876.898
999.869
1193.17
1365.64
1844.87
2686.71
6776.45
5315.23
3328.37
3869.11
4149.65
3087.42
2526.2
322.084
958.493
3284.35
5364.77
596.865
869.583
1048.54
1261.88
1514.71
2208.1
3718.26
12567.9
2677.41
3691.68
4512.94
4527.43
3165.51
2828.97
573.986
4693.8
129.285
536.984
868.509
1148.91
1397.45
1807.75
3042.62
7545.03
2913.42
3106.11
4042.56
5373.01
4859.4
3400.91
3638.73
10115.5
83.7191
121.439
493.309
873.637
1332.52
1665.98
2486.86
6174.3
2433.18
3307.39
3644.97
4412
6531.03
5250.14
4126.37
6828.84
91.1744
88.1431
117.577
462.956
887.932
1679.33
2289.59
4978.71
1331.35
2827.07
3766.91
4314.28
4845.21
7939.63
6145.1
7109.16
97.2218
99.1877
95.7616
118.789
446.991
922.936
2459.8
4556.41
1074.62
1549.97
3270.67
4341.77
5136.89
5749.96
9646.51
9594.13
97.6945
105.688
110.74
107.941
128.819
449.713
1032.75
5230.85
930.378
1170.33
1773.44
3798.99
5167.71
6152.38
7955.32
11964.6
92.3585
106.141
117.891
127.702
127.757
160.348
520.433
1298.51
947.431
1045.08
1279.67
2056.58
4444.63
6528.97
8214.71
11074.1
85.3094
100.282
118.327
135.87
154.168
163.409
249.633
1060.45
1072.15
1058.32
1172.04
1429.85
2480.64
5264.57
9352.22
18307.1
128.447
89.7415
111.807
136.294
164.026
200.824
246.351
662.699
1340.18
1171.18
1183.07
1334.79
1666.96
3222.02
6565.27
15180.4
577.34
121.149
97.4211
128.798
164.452
213.96
307.813
600.145
2461.59
1555.43
1283.92
1345.03
1575.67
2090.41
4718.26
11705.8
901.605
523.281
117.717
109.704
155.394
214.411
328.778
763.812
3035.32
2868.79
1775.66
1436.92
1586.5
1989.11
3015.18
9089.89
1000.66
888.31
481.8
119.34
129.698
202.383
329.349
817.166
2747.57
3554.21
3367.21
2044.35
1676.21
2002.63
2869.81
6007.25
1174.22
1015.6
885.526
451.986
129.956
165.662
310.212
817.145
3384.13
3263.59
4187.2
4061.06
2429.45
2111.07
2891.79
5720.78
1268.81
1185.45
1069.45
890.693
436.145
162.011
249.023
767.086
3312.37
3823.83
4029.67
4963.65
5097.8
3055.06
3072.43
5793.45
1486.13
1271.45
1220.42
1176
905.889
438.894
251.596
601.782
3216.11
3796.11
4411.65
5292.24
5947.75
6901.19
4313.62
6261.57
1705.8
1513.66
1305.27
1295.6
1367.78
943.944
509.463
662.142
2899.4
3593.76
4443.35
5267.11
7595.37
7504.61
12998.3
8284.75
2081.53
1891.06
1763.55
1573.71
1385.69
1439.9
1727.49
1057.6
1047.85
2436.84
3024.56
4006.29
5288.79
6581.65
12863.3
10945.5
66128.9
1696.78
2082.88
1987.26
1868.41
1684.67
1541.85
1722.47
2538.73
1341.42
2175.96
2407.13
3079.87
4432.1
6430.8
8669.3
27848.4
14148.3
1848.14
1532.32
1655.5
2103.67
2130.34
2032.93
1882.52
1847.61
2376.67
5421.27
2185.32
2380.78
3101.98
4866.06
7938.76
12080.3
77311.3
1911.73
767.164
1437.56
1435.15
1656
2149.68
2379.96
2303
2257.9
2553.05
4760.19
851.395
1214.15
2240.52
2393.9
3165.79
5380.81
9748.54
10887.7
2070.54
600.795
1323.27
1380.77
1716.63
2234.02
2818.22
2787.07
3117.37
5150.33
678.394
1084.38
2377.47
2500.99
3398.95
6331.71
11494.7
2344.04
480.429
1260.91
1379.06
1878.45
2385.23
3654.31
3856.65
6354.57
563.563
1004.09
2651.19
2797.34
4117.8
9617.42
2826.94
395.819
1254.48
1449.49
2243.04
2651.34
5632.1
7834.61
489.661
972.612
3216
3592.86
7032.62
3658.52
339.217
1321.36
1653.5
3195.05
13422
450.648
999.524
4585.26
6725.15
5225.9
314.804
1521.38
2238.07
7538.46
448.693
1121.85
9841.52
342.985
2101.45
5136.65
527.289
1509.23
609.977
4999.95
1009.34
3464.37
0.906029
0.866231
0.890953
0.890879
0.920129
0.916307
0.929831
0.929216
0.947149
0.833825
0.854737
0.86293
0.886692
0.893371
0.916651
0.926043
1.0014
1.02552
1.04917
1.08566
1.1129
0.946267
0.958979
0.945173
0.946335
0.954577
0.949139
0.973685
0.965974
0.992034
1.15604
1.17646
0.806156
0.828102
0.839613
0.861516
0.873031
0.892846
0.909461
0.929274
0.945687
0.964006
0.983319
1.00309
1.03273
1.0594
1.10885
1.13647
1.22579
1.24042
0.976865
0.991822
1.01139
1.0275
1.05187
1.07375
1.11433
0.972248
0.976755
0.974602
0.973644
0.992974
0.981237
1.02188
1.00875
1.04181
1.11399
1.14386
1.31063
1.33642
1.2235
1.21767
1.29923
0.786537
0.805915
0.822444
0.841355
0.858982
0.877611
0.897732
0.915326
0.943134
0.963764
0.988939
1.00928
1.07486
1.09924
1.14626
1.17201
1.24322
1.26845
1.34942
1.38609
1.47973
1.49372
1.62734
0.999361
1.00867
1.02781
1.04396
1.06909
0.997953
0.999802
1.00857
1.00126
1.03385
1.01939
1.09376
1.06965
1.05299
1.0784
1.13802
1.14205
1.22517
1.25097
1.5722
1.36577
1.48747
1.31645
1.36232
0.775557
0.793403
0.813498
0.832525
0.853503
0.871537
0.894099
0.914472
0.935663
0.96077
0.991026
1.03227
1.16427
1.10225
1.21788
1.27417
1.34282
1.36471
1.45034
1.67553
1.72297
1.74189
2.01117
2.04328
1.94638
2.09028
2.09323
2.8162
1.02164
1.03131
1.04779
1.06374
1.14623
1.118
1.02625
1.02335
1.04387
1.03342
1.09658
1.07437
1.05996
1.19813
1.16828
1.08891
1.12866
1.1599
3.64177
3.07105
5.66825
1.23222
1.23547
1.32348
1.35479
1.61037
1.64136
2.30801
1.93633
1.55192
1.61921
0.78137
0.795425
0.820576
0.836501
0.863036
0.879563
0.90899
0.928795
0.991694
0.968634
1.04785
1.07519
1.17139
1.18777
1.36905
1.36505
1.54692
1.55928
1.73315
1.7639
1.94639
22.6198
21.208
12.4994
2.00932
2.23246
2.40776
2.67641
2.95194
3.10283
3.09153
11.6227
4.93422
1049.74
1328.26
1243.72
1827.47
1541.16
1656.02
1768.08
1836.76
1.04704
1.0492
1.07233
1.0864
1.14232
1.11815
1.05712
1.0506
1.10025
1.08145
1.07019
1.252
1.21984
1.18996
1.16376
1.10698
1.15451
1.25091
1.1878
1.24197
895.026
629.104
109.712
57.4535
25.0475
2.46084
4.08847
5.37125
14.9046
1.36611
1.37223
1.38186
1.3723
1.59618
1.62936
1.76935
1.7055
2.29282
961.212
1258.32
1472.73
1399.37
1619.82
1764.83
1798.41
1857.3
1809.36
1760.71
0.872334
0.83823
0.902964
0.891188
0.949243
0.941495
0.999709
0.995668
1.05271
1.05086
1.12047
1.11918
1.23817
1.26937
1.31967
1.33712
1.16373
1.45737
1.26988
1.31997
2.81069
2.80687
3.385
3.81153
3.72493
58.3962
94.1876
300.512
182.58
56.3575
39.1398
6.34594
8.40244
12.1522
11.4512
36.1245
16.7706
14.8286
390.141
930.593
614.558
675.526
956.051
1183.43
1309.87
1303.26
1608.41
1596.66
1606.09
1519.19
1823.95
1883.64
1917.68
1741.6
1890.83
1811.69
1.07565
1.07597
1.09701
1.11298
1.14477
1.12134
1.10973
1.09199
1.0817
1.30377
1.26924
1.23593
1.20897
1.18381
1.1606
1.12804
1.1741
1.17971
1.24305
1.24815
1.3103
1.24029
185.294
492.121
331.546
848.284
525.203
92.2348
198.288
70.584
23.7298
1.37272
17.4019
3.06533
6.21386
4.3836
1.55349
1.48598
1.66346
1.55988
1.70311
1.6915
1.93352
1.79305
3.07768
949.798
1332.44
846.984
1460.95
1650.98
1261.09
1490.43
1772.39
1777.45
1795.43
1616.16
1797.5
5.16776
1.15922
103.706
29.1458
2.42193
1.1863
1.78971
1.13729
1.48637
1.09017
1.3261
1.29338
1.24761
1.40505
1.37224
1.60684
2.28986
1.43304
2.75081
4.1322
4.26428
7.77525
22.2886
8.64408
9.29051
39.2833
42.6564
14.8778
13.5976
19.0677
19.9652
26.677
28.3048
122.104
185.51
344.739
238.093
132.773
83.7403
49.3236
54.2232
99.1121
66.7297
73.0129
608.49
480.494
648.908
963.38
854.348
1267.39
1172.31
1578.56
1415.62
1475.64
1678.7
1847.31
1773.74
1672.75
1856.59
1938.3
1945.34
1.13361
1.1042
1.10201
1.12192
1.14425
1.1257
1.11747
1.14608
1.3585
1.32212
1.28275
1.25211
1.22405
1.19715
1.18111
1.15871
1.40807
1.35052
1.4094
1.46357
1.4243
1.45733
1.19884
1.19442
1.20067
1.22593
1.38848
1.29777
1.33475
1.2564
505.82
397.304
234.299
35.6034
172.563
96.0733
1.46823
1.75345
1.68107
44.9633
4.40028
12.4827
7.69161
1.97872
1.89817
2.08105
2.00931
2.39855
2.10217
5.15454
465.893
1041.04
1313.78
901.608
645.908
1473.26
1208.39
1518.34
992.513
1796.45
1841.07
1923.22
1805.6
1665.79
222.317
246.241
59.0005
11.5573
252.715
218.883
30.4909
11.123
21.3228
6.40281
13.4837
4.23685
9.34784
2.35853
4.42374
10.1061
30.2398
18.3148
37.3062
20.0418
26.5668
65.066
101.774
111.56
56.9187
53.9429
120.642
137.444
62.5577
70.1355
95.1535
96.2256
126.474
103.607
402.468
215.698
290.869
269.012
210.894
189.669
238.952
141.103
220.601
715.471
527.273
1197.73
937.11
1045.67
1487.64
1333.57
1675.83
1590.73
1779.74
1721.04
1.43958
1.40581
1.13096
1.14766
1.15066
1.13509
1.13305
1.15821
1.17535
1.32593
1.28102
1.2634
1.22853
1.21536
1.18981
1.18094
1.16277
1.37061
1.33306
1.35303
1.3793
1.33167
1.36312
1.19327
1.20268
1.21497
1.26428
1.52294
1.38244
1.40898
1.30619
91.7084
191.39
291.484
1.63534
1.94108
1.9014
2.34704
2.31922
23.6991
102.262
7.07211
21.5966
2.58311
2.33043
4.04228
2.96159
8.17386
314.348
604.45
518.026
1137.41
1172.03
1387.03
1801.84
1939.11
1030.66
1658.94
2062.11
2000.51
2022.08
1875.3
223.083
198.722
102.348
249.117
231.57
290.702
234.688
151.649
319.664
395.978
225.193
107.484
175.421
66.7465
124.752
50.7656
65.7404
89.0646
64.4647
143.981
110.879
102.986
103.661
113.172
219.894
241.708
259.823
295.885
188.743
181.47
321.607
339.337
206.516
226.597
290.393
283.398
325.111
552.38
456.753
517.319
358.695
458.252
467.921
415.283
503.818
1028.95
827.41
1386.28
1239.67
1595.01
1516.29
1676.95
1611.68
1.48239
1.42109
1.37562
1.34152
1.16704
1.16276
1.16425
1.17477
1.19089
1.29984
1.27313
1.24799
1.22827
1.20865
1.19439
1.18583
1.29704
1.3165
1.2766
1.30354
1.27943
1.30286
1.20848
1.20904
1.23693
1.33501
1.25134
1.21367
1.68192
1.52502
1.54404
1.41826
1.82022
234.315
140.644
2.1929
2.22278
2.53568
2.61146
3.45041
4.11141
2.55384
26.6801
127.24
31.9007
9.78931
6.28933
28.626
587.832
389.188
1298.37
1036.24
1760.83
1887.43
2164.82
2178.95
2253.69
2141.09
6.54758
33.2059
256.861
280.884
64.47
236.901
310.735
252.148
417.66
447.129
256.891
338.182
455.2
436.266
454.398
299.529
376.795
278.134
242.561
227.997
388.272
290.866
400.932
332.526
340.512
455.473
503.061
502.83
531.408
448.522
427.723
379.671
594.511
611.911
472.952
491.769
631.95
628.663
821.032
927.471
805.249
768.231
834.13
745.662
807.051
1283.4
1180.94
1453.76
1385.26
1492.85
1430.85
0.88999
1.61265
1.49827
1.4598
1.41379
1.35988
1.32535
1.29072
1.18042
1.18374
1.18346
1.185
1.21486
1.26202
1.24565
1.22496
1.21255
1.19833
1.23199
1.2533
1.2324
1.25515
1.24466
1.26406
1.21321
1.27055
1.28481
1.43113
1.25576
1.28081
1.92553
1.60057
1.67925
1.45214
2.26545
2.70958
2.81944
461.729
187.943
2.96734
2.37451
9.0746
4.35492
41.8099
34.9506
22.9753
143.009
231.679
81.2236
1260.57
781.095
1930.52
1712.2
2233.15
2282.53
2497.28
2452.11
3.29596
20.3733
254.274
394.879
41.0803
148.922
413.955
329.863
325.704
438.777
344.949
274.506
601.996
411.683
540.974
576.302
579.235
583.884
581.529
505.8
496.482
622.381
596.168
604.255
626.521
752.565
708.499
724.29
730.441
747.95
716.136
856.421
645.295
696.869
875.803
836.859
790.265
804.119
931.374
930.922
1010.42
1012.38
1199.25
1053.82
1070.24
1307.3
1251.44
1303.6
1258.7
0.781668
0.836965
0.89319
1.51172
1.46198
1.44294
1.40826
1.39155
1.35813
1.31211
1.25438
1.28782
1.38025
1.40435
1.19915
1.18672
1.17878
1.18025
1.21525
1.19532
1.1911
1.2015
1.21512
1.20602
1.22683
1.22244
1.23845
1.22671
1.26192
1.31129
1.40588
1.45629
1.34504
1.83534
2.31637
1.5977
1.90889
2.58886
3.69455
2.85926
3.85878
7.55207
2.04229
913.497
534.918
37.9892
15.0683
152.783
88.4341
402.653
712.773
301.701
1812.73
1579.77
2289.93
2396.43
2719.67
2712.04
2.41565
12.8052
215.272
451.586
24.6485
97.8918
464.617
483.323
258.639
289.782
473.274
335.325
544.261
478.396
267.325
344.056
668.461
503.127
566.534
538.406
624.395
679.9
678.167
631.844
661.366
720.636
705.219
708.027
857.204
807.036
771.06
755.904
704.852
847.175
869.513
953.205
892.911
901.714
974.591
988.388
956.678
969.393
999.593
1016.47
1189.11
1142.05
1053.75
1180.38
1155.66
0.769954
0.791156
0.822754
0.890145
0.933563
1.44795
1.36857
1.35775
1.33361
1.33293
1.23058
1.2768
1.25674
1.30489
1.33148
1.31988
1.30181
1.32665
1.28939
1.28725
1.24438
1.2459
1.23089
1.19017
1.18799
1.18891
1.19276
1.22313
1.18838
1.19739
1.20447
1.21108
1.20839
1.22417
1.22854
1.26139
1.35477
1.29524
1.42922
1.57994
1.53341
1.68681
2.20723
2.72269
1.90517
2.30319
3.33479
4.89773
15.2914
11.009
9.42258
21.5764
75.8994
66.0412
1708.34
1162.64
335.879
313.158
802.204
1252.08
769.457
2260.1
2455.76
2827.46
2994.39
1.95501
7.67012
164.021
428.39
14.3161
57.5854
439.848
556.649
313.496
255.492
544.118
424.481
359.276
293.961
242.568
246.839
564.119
543.035
306.535
428.565
351.348
433.525
542.419
627.396
607.827
596.67
558.785
567.562
511.525
708.454
705.116
591.514
515.922
543.24
530.336
719.224
766.806
974.345
1007.66
1004.41
985.594
990.949
1011.66
1029.7
987.065
994.408
1.32244
0.778935
0.786066
0.806106
0.83357
0.868085
0.933772
0.978672
0.801668
0.799768
0.834604
0.826237
0.874335
0.85774
1.20019
1.21132
1.15703
1.16991
1.1094
1.12627
1.05924
1.08142
0.918318
0.896928
0.964482
0.938547
1.01111
1.03354
0.98432
1.29945
1.28969
1.27294
1.28008
1.24856
1.23762
1.26403
1.25785
1.25578
1.24176
1.26506
1.21755
1.22071
1.17622
1.18212
1.22968
1.19291
1.21025
1.19138
1.20776
1.21015
1.20644
1.21302
1.21305
1.22404
1.23404
1.23271
1.23219
1.22933
1.32628
1.25611
1.48511
1.37514
1.57305
1.83097
1.72991
2.04135
2.67042
3.92717
2.41843
3.06022
4.5094
13.6183
162.533
100.912
193.787
42.9605
177.218
457.338
569.988
2306.35
1860.84
1134.39
1875.47
1214.5
2929.04
2984.3
1.54392
4.90702
413.407
102.379
196.366
8.69121
34.8248
563.44
596.228
367.433
280.787
588.921
457.238
638.692
238.572
235.139
227.399
422.462
366.635
215.419
255.264
283.478
236.709
375.726
438.182
399.159
355.191
375.479
329.608
388.098
315.705
400.749
254.029
337.316
237.606
321.501
552.489
990.666
950.134
683.254
938.717
895.189
1.23612
0.974175
1.01842
0.812878
0.821307
0.846398
0.879304
0.917968
0.831094
0.833046
0.857129
0.856488
0.891834
0.885065
1.13581
1.14849
1.09672
1.11245
1.05456
1.0721
1.01267
1.03321
0.931201
0.918304
0.970525
0.992883
0.954473
1.24803
1.23879
1.22896
1.24416
1.23665
1.20137
1.20682
1.19661
1.21977
1.16453
1.17085
1.12434
1.13403
1.23027
1.23168
1.23103
1.24245
1.23525
1.24224
1.24395
1.23757
1.24809
1.26802
1.25054
1.25265
1.24844
1.37945
1.30147
1.31094
1.63837
1.45428
1.74558
2.20451
2.08267
2.59142
3.55242
7.71068
3.1679
4.9729
9.84457
74.0288
582.021
733.577
514.052
751.974
199.872
633.395
1112.58
1417.19
1911.94
3117.7
2352.02
1.38898
2.19669
4.32193
234.503
483.89
58.1983
143.01
14.7374
543.115
662.113
344.331
251.185
633.869
390.949
665.13
623.142
511.567
507.994
197.481
214.838
283.722
247.453
179.39
191.873
201.321
179.884
237.741
264.171
251.498
223.471
214.547
199.228
170.67
160.19
142.66
124.377
166.119
118.67
708.851
194.853
506.978
2929.54
1.02135
1.09669
0.926359
0.985476
0.848512
0.863856
0.894193
0.863267
0.866481
0.884312
0.885493
0.911075
0.909826
1.0879
1.10109
1.05086
1.0689
1.01246
1.03227
0.977394
0.999767
0.944642
0.967396
0.937115
1.20964
1.20819
1.20324
1.19714
1.15771
1.17084
1.16293
1.19196
1.1228
1.13472
1.08866
1.10001
1.23241
1.21769
1.25792
1.2477
1.32394
1.29699
1.34008
1.33057
1.27988
1.29667
1.34636
1.30589
1.27891
1.37922
1.29811
1.29846
1.52483
1.5183
1.84158
1.82347
2.61865
2.47253
3.95756
2.96819
5.65718
18.1516
4.41926
8.11432
52.2082
253.85
504.471
1295.17
1410.04
1181.42
1232.73
1611.48
1964.18
2219.45
29.3411
1.17983
1.22312
2.01743
2.71628
8.89929
376.867
91.6184
184.797
625.204
436.725
230.09
299.218
634.186
654.247
319.84
410.424
664.05
607.535
527.021
419.942
171.518
194.331
187.615
178.238
153.367
157.354
152.09
152.946
156.302
166.761
118.74
122.032
95.7515
96.168
85.782
82.9713
112.638
84.2656
1.00114
1.06227
0.891095
0.912737
0.955905
0.896775
0.913328
0.914033
0.916621
0.932451
0.934809
1.05516
1.07045
1.01973
1.04279
0.989485
1.0109
0.962427
0.983654
0.957072
1.20642
1.18319
1.18143
1.18428
1.12978
1.14634
1.17926
1.14624
1.09631
1.11461
1.06782
1.08325
1.26474
1.24107
1.24063
1.30529
1.27986
1.41893
1.40562
1.39397
1.42647
1.54838
1.50013
1.50143
1.46393
1.43957
1.3724
1.33754
1.51313
1.45055
1.563
2.0419
1.79464
3.34773
3.48305
2.43041
3.27278
5.40907
5.82666
23.8445
73.3063
19.516
202.668
416.309
745.706
1413.87
1953.09
1974.81
2294.92
8029.01
136.876
1.10053
17.5431
45.8312
1.2175
1.31647
1.38439
2.23453
3.11724
7.99443
372.852
258.457
642.186
584.493
200.734
254.097
699.521
679.915
276.606
367.957
641.864
559.962
427.467
146.727
170.524
125.895
129.96
129.496
119.652
103.217
106.029
85.9997
89.7205
80.5138
81.7631
79.4802
82.2296
1.05237
0.934963
0.980015
1.01436
1.02525
0.932178
0.953266
0.94382
0.951605
0.958047
0.959539
1.03392
1.05668
1.00778
1.03025
0.981664
1.00498
0.980629
1.06155
1.17896
1.17792
1.18516
1.16167
1.13988
1.11595
1.1885
1.11464
1.09515
1.09131
1.25976
1.22246
1.28789
1.32964
1.33372
1.4149
1.39769
1.5582
1.59871
1.65622
1.63123
1.8471
1.84123
1.7807
1.59549
1.5545
1.75573
1.71594
1.89051
1.88066
2.64252
2.55834
6.38712
6.57225
6.10715
4.62176
35.6504
26.2599
263.7
163.589
595.501
765.94
1123.05
1978.62
272.139
80.8857
134.672
1.25484
1.17158
12.4425
38.6044
1.34775
1.62782
2.19982
2.65803
7.95275
551.209
429.613
715.158
694.722
176.603
232.06
728.891
653.257
532.406
417.857
274.582
125.224
145.494
97.8973
107.161
104.578
86.4611
90.1919
84.3612
84.9522
85.9959
87.6826
1.11669
1.18038
0.983701
0.99754
1.06866
1.13953
0.976355
0.990964
0.97728
0.989973
0.98931
0.995777
1.05683
1.03962
1.01758
1.03431
1.01199
1.25345
1.09514
1.0789
1.0786
1.16911
1.17901
1.14516
1.23413
1.18701
1.15806
1.12807
1.34397
1.33122
1.4257
1.39297
1.5286
1.50711
1.72203
1.67102
1.92247
2.02209
2.53196
2.33934
2.21472
1.99873
1.91831
2.09317
2.08828
2.4173
2.49427
2.46349
5.29506
4.20743
38.8096
13.1176
17.9285
10.3434
284.815
155.329
749.963
519.208
1065.01
943.296
417.498
191.92
282.782
63.0173
124.044
1.43871
1.27656
11.9047
32.5298
2.60963
1.52897
5.3911
676.861
581.283
757.588
774.625
237.913
173.912
144.466
736.557
544.133
440.051
309.731
254.386
102.059
116.778
87.1451
91.0243
85.7307
85.5714
90.9559
89.4909
1.21376
1.32723
1.02751
1.08746
1.14401
1.25106
1.02501
1.05436
1.03561
1.01046
1.04897
1.0478
1.08204
1.05597
1.07429
1.33019
1.28866
1.14467
1.12967
1.14664
1.13444
1.199
1.26821
1.18086
1.20501
1.1743
1.52441
1.51658
1.45035
1.66436
1.6258
1.86547
1.99209
1.94495
2.34826
2.28825
4.17503
3.21258
3.31261
3.0042
2.81771
2.7087
3.82313
3.86171
3.74896
3.38858
6.43671
23.5519
16.3637
200.185
90.1649
94.4581
586.114
408.71
960.579
783.765
342.143
538.412
645.327
163.767
314.23
48.8004
114.62
1.46287
1.83245
7.57411
31.1413
2.02582
4.61768
794.949
768.162
795.368
775.614
851.094
149.879
174.928
115.955
660.56
503.228
333.85
280.194
171.01
87.3742
97.333
85.3373
83.4516
91.4514
88.5997
1.36973
1.5651
1.10174
1.16832
1.25556
1.42532
1.11127
1.08697
1.14769
1.14374
1.14105
1.13664
1.1293
1.42715
1.32347
1.19918
1.21028
1.18002
1.23743
1.3106
1.25828
1.31315
1.25192
1.85051
1.75996
1.71789
1.57867
2.29049
2.59724
2.39932
2.61182
2.96723
2.79488
3.89484
3.33573
4.98471
5.46894
5.37499
3.63274
8.24232
8.53327
6.61433
75.1959
38.09
201.262
183.052
507.705
398.899
798.936
707.672
365.513
547.72
677.057
165.402
323.545
45.0417
113.806
2.50829
1.84104
7.93297
5.33301
24.0776
672.098
890.112
880.655
890.131
814.806