/*--------------------------------*- C++ -*----------------------------------*\
  =========                 |
  \\      /  F ield         | OpenFOAM: The Open Source CFD Toolbox
   \\    /   O peration     | Website:  https://openfoam.org
    \\  /    A nd           | Version:  8
     \\/     M anipulation  |
\*---------------------------------------------------------------------------*/
FoamFile
{
    version     2.0;
    format      ascii;
    class       surfaceScalarField;
    location    "9000";
    object      phi;
}
// * * * * * * * * * * * * * * * * * * * * * * * * * * * * * * * * * * * * * //

dimensions      [0 3 -1 0 0 0 0];

internalField   nonuniform List<scalar> 
6926
(
-1.05308
0.0710304
-0.652858
-0.575153
0.174931
-0.941649
0.0740222
-0.11292
-0.539938
0.0688488
-0.756922
-0.752279
-0.0144388
-0.635251
-0.0481788
0.234424
-1.05806
-0.064882
0.0131677
-0.583537
0.177766
-0.717704
-0.644038
0.466534
-0.586709
0.133342
0.025147
-0.660141
-0.828082
-0.244412
-0.409727
-0.0679184
0.0526744
-0.568293
0.156254
-0.873958
-0.555703
-0.534205
0.000171077
-0.533756
0.257372
-0.680506
-0.165025
-0.767877
-0.57277
-0.794975
-0.217314
-0.210007
0.0233042
-0.381591
-0.191513
-0.574196
-0.122765
-0.751193
-0.896195
0.12969
-0.13117
-0.592823
0.119815
-0.423187
-0.812395
0.0723862
-0.511073
0.00017177
-0.528537
-0.00504809
-0.53411
-0.00349325
-0.102483
-0.938838
-0.388219
0.252407
-0.436958
-0.56308
-0.0424531
-0.10126
-0.471844
-0.185245
-0.511716
0.0459093
-0.797102
-0.113065
-0.705417
0.22566
-1.06843
-0.00149971
0.0947436
-0.787324
-0.00262086
-0.533632
-0.788734
-0.00795565
-0.612509
0.000175681
-0.525005
-0.00335976
0.153228
-0.139929
-0.827724
-0.818038
-0.527905
-0.011253
-0.534207
-0.0323656
-0.0383873
-0.648044
-0.523781
0.04437
-0.420777
-0.236312
-0.886583
-0.834037
0.0369351
0.000159941
-0.699401
-0.00617679
-0.867638
0.0248689
-0.983455
0.0335762
-0.727567
-0.256032
-0.533913
-0.010725
-0.522747
-0.753592
-0.13176
-0.14349
-0.759403
-0.849008
0.000187135
-0.528043
0.00321338
-0.519905
-0.0113606
-0.174014
-0.682411
-0.389418
-0.612319
-0.528254
-0.0172062
-0.534173
-0.0219737
-0.0363954
-0.567279
-0.890083
0.0560453
-0.223853
-0.625795
0.143547
-0.0273552
0.275693
-0.391885
-0.332064
-0.558019
0.359358
-0.547875
-0.0835481
0.000177502
-0.61603
0.840962
-0.470747
-0.453763
-0.0328528
-0.958586
-0.0773626
-0.642653
-0.375951
0.0707693
-0.422385
-0.0980921
-0.533891
-0.0226717
-0.521967
-0.00891467
-0.513654
0.584357
-0.592635
-0.0690851
-0.425328
-0.512199
-0.437887
0.252505
-0.292858
-0.349066
0.0160363
-0.522934
0.461579
-0.65956
-0.0258717
-0.387627
0.000197306
-0.54668
0.0188244
-0.510652
-0.00603888
-0.516251
-0.0233642
-0.132559
-0.586248
-0.209275
-0.535603
-0.532877
-0.0185019
-0.0516421
-0.53761
-0.301366
-0.0149851
0.288996
0.869894
-0.234842
0.300144
0.00805336
-0.0535823
-0.346356
-0.284695
-0.00861808
-0.129034
-0.472423
-0.687053
-0.029516
0.000198212
-0.586712
0.121512
-0.621775
-0.575132
0.242882
-0.991439
-0.0208529
-0.551031
-0.0688957
-0.544592
0.013438
-0.533915
-0.0348673
-0.521695
-0.022519
-0.508363
-0.00238048
-0.511076
0.191057
-0.68722
0.672158
-0.357303
-0.38394
-0.0403503
-0.461782
0.0515085
-0.440924
0.000841705
-0.472268
0.0787547
-0.504953
-0.466579
0.107163
-0.41371
0.000212103
-0.580622
0.0341386
-0.529825
0.0379971
-0.524826
0.00253609
-0.528243
-0.0279988
0.0949349
-0.0988364
-0.531702
-0.542955
-0.542603
-0.0135091
0.359347
-0.406339
0.0320063
0.413501
-0.286753
-0.344299
-0.325624
-0.0893331
0.208071
-0.895124
-0.551105
0.009457
0.00022801
-0.596397
-0.00644641
-0.605872
-0.641764
0.0601852
-0.748557
-0.000268493
-0.537325
-0.0014087
-0.543452
-0.0429894
-0.525793
-0.0408307
-0.503383
-0.0173793
-0.493364
0.0130068
-0.523855
-0.188883
-0.497495
-0.494068
0.0511249
-0.0133597
-0.47869
-0.509494
-0.0243444
-0.461283
0.0344758
-0.540838
0.30676
-0.773591
0.000251217
0.000213384
-0.61063
0.0302203
-0.583767
0.0880807
-0.111286
-0.375542
-0.457052
-0.0686552
-0.552053
-0.0185491
0.00471981
0.00261655
-0.539038
-0.551744
0.360358
-0.32869
0.000338169
0.000267894
-0.635157
-0.0347654
-0.418413
0.00039061
-0.325918
-0.00317789
-0.306061
-0.236257
-0.640766
-0.133745
-0.761379
0.00536246
0.000277582
-0.602037
0.00296406
-0.603474
-0.633403
-0.00539654
-0.688372
-0.0441517
-0.536162
-0.038439
-0.549165
-0.0529971
-0.513627
-0.064114
-0.456649
0.0143358
-0.494693
0.0282312
-0.551808
0.054307
-0.513899
-0.467533
0.00716984
-0.514047
0.00966187
-0.481182
0.0131547
-0.464776
-0.028094
-0.551183
-0.624779
0.0143624
-0.625071
0.00054367
-0.628612
0.0750648
-0.363019
-0.205319
-0.65048
-0.590314
-0.0303935
0.00383117
0.0033201
-0.54619
-0.566462
-0.618
-0.00680317
-0.605543
-0.0121196
-0.453631
0.000452405
-0.590751
-0.0144013
0.000514451
-0.457324
-0.0388527
-0.503465
-0.108637
-0.665875
-0.00799607
-0.753382
0.0117738
0.00032831
-0.614139
-0.0325896
-0.55911
-0.623945
-0.0420484
-0.693768
-0.0531077
-0.536052
-0.0432461
-0.559026
-0.0973186
-0.480422
-0.368773
-0.0735398
0.0840418
-0.550503
0.0266141
-0.578094
-0.0180171
-0.523976
-0.472395
-0.00509663
0.00681862
-0.482904
-0.515824
0.00921885
-0.467176
-0.0294157
-0.565013
-0.63821
0.0239612
-0.630364
-0.00730235
-0.668039
0.0926236
-0.765181
-0.0304522
0.00622522
0.00398154
-0.556396
-0.59063
-0.619336
-0.0178318
-0.606078
-0.025377
-0.574875
-0.0154228
-0.591
-0.0294793
-0.0118904
-0.56247
0.000578657
-0.496755
-0.0381545
-0.573948
-0.00804391
-0.665827
0.078046
-0.831428
0.0925001
-0.707007
0.000367557
-0.0311262
-0.435484
-0.359096
-0.295975
-0.735817
-0.0733237
-0.560047
-0.0497556
-0.582594
0.332894
-0.617625
-0.221068
-0.157893
-0.549502
0.000387871
0.0656673
-0.589557
-0.593879
0.0161523
-0.0156557
-0.537736
-0.478832
0.00295957
-0.514802
-0.00158318
-0.478361
-0.00292271
-0.465837
-0.0296296
-0.585139
-0.659721
0.0156425
-0.638117
-0.0289059
-0.69171
0.0191525
0.00257493
-0.014936
-0.544035
-0.618508
-0.61373
-0.0422192
-0.602415
-0.0366913
-0.570493
-0.0359298
-0.593476
-0.038419
-0.0324983
-0.549885
-0.002156
-0.559736
0.000635203
-0.535545
-0.00249439
-0.579497
0.085171
-0.672952
-0.12691
-0.704518
0.492506
-0.395559
-0.25484
-0.302074
-0.665724
-0.366067
0.022658
0.108155
-0.526371
-0.083066
-0.698049
-0.0594166
-0.606244
0.0557561
-0.607714
-0.527254
0.000410311
-0.600873
0.00738214
0.0274734
-0.600878
0.00891398
-0.490669
-0.558452
0.0251905
-0.0333406
-0.470211
-0.504547
-0.0267964
-0.472381
-0.0315937
-0.612962
0.0193084
-0.490353
0.414872
0.0561732
-0.699991
0.0239239
-0.625176
-0.103721
-0.0495368
-0.0104721
-0.484026
-0.648892
-0.600069
-0.0673263
-0.58223
-0.0545303
-0.555979
-0.0734268
-0.0246018
-0.596047
-0.0822996
-0.506177
-0.0058803
-0.546161
0.0103004
-0.569401
0.000694304
-0.538733
0.0367387
-0.531065
-0.532695
-0.292504
0.152247
0.00353775
-0.663143
-0.0224786
-0.68204
0.105473
-0.771197
0.562669
-0.709355
0.00179893
0.0448114
-0.572982
-0.525879
0.000423856
-0.0388864
-0.603406
-0.00156563
-0.643565
0.0299708
-0.610211
-0.601387
0.000924343
0.0137515
-0.607247
0.0116419
-0.601687
-0.505823
0.0617756
-0.0301367
-0.50185
-0.453244
-0.123233
-0.379284
-0.0680917
-0.546436
0.960471
-0.645463
-0.315008
-0.368036
0.541164
-0.153819
-0.562196
-0.296193
0.426271
-0.184481
0.173082
0.696716
0.319928
0.192338
0.292666
-0.058733
-0.322826
-0.614444
-0.947794
-0.474946
-0.576569
-0.688685
0.146412
-0.553686
-0.189529
0.00326037
-0.581548
-0.605559
-0.0639151
-0.316086
-0.371773
-0.00292006
-0.509138
0.0193018
-0.555163
-0.424451
0.135484
0.0237262
-0.592433
0.000750119
-0.502745
-0.439732
0.0609134
-0.490553
-0.195068
0.100156
-0.782195
0.0632701
-0.453667
-0.721551
-0.0606447
-0.00898781
-0.762209
-0.673531
-0.00521528
-0.0725231
-0.495243
-0.531538
0.000443847
-0.599163
-0.00179972
0.0201544
-0.59359
-0.167999
-0.455411
0.0259504
-0.62241
-0.604321
-0.00200145
0.0475965
-0.717376
-0.58146
-0.575679
-0.305455
-0.437184
-0.277251
1.01864
-0.0482191
0.373176
-0.504029
0.427086
-0.0704033
-0.551934
0.530858
-0.132743
-0.669086
-0.179041
-0.0184525
-0.703098
0.656845
-0.0177742
-0.657523
0.604485
0.0216248
-0.0438789
-0.582231
-0.0824133
0.77913
-0.410597
0.135584
0.467351
0.411033
0.0172172
0.397705
-0.0293516
-0.401931
-0.788192
-0.638693
0.208537
-0.430735
-0.397487
0.165328
-0.592803
0.0450646
-0.690528
-0.429444
0.179022
-0.174029
-0.0824009
0.23892
-0.472605
-0.457094
0.0359148
-0.525751
0.0453781
-0.576814
-0.364638
0.0603906
0.028705
-0.620388
-0.442625
0.000793893
0.520225
-0.362101
-0.0948543
-0.104287
0.682709
-0.0865085
-0.13306
0.595874
-0.00916309
-0.550786
0.574417
-0.00200574
0.0375098
-0.799719
-0.708544
0.142092
-0.261263
-0.376073
-0.389914
0.000468437
-0.598116
-0.000603749
-0.010198
-0.595923
0.0799115
-0.647551
-0.812684
-0.611064
-0.0133475
0.141871
-1.1365
-0.745044
0.984561
-0.10559
-0.188554
0.462203
-0.00174805
-0.611503
0.526927
-0.0481667
-0.727597
-0.0629467
-0.0407923
-0.66061
-0.743891
0.0495477
-0.0582192
-0.57356
0.00271287
0.637806
-0.00300341
-0.637516
-0.498526
0.0137548
-0.00183408
0.45543
0.792885
0.329876
0.079323
0.410295
0.00462664
0.434988
-0.00213741
-0.207391
-0.939584
-0.787046
0.277336
-0.509495
0.0405977
-0.588336
0.095052
-0.546659
-0.260172
0.0745563
-0.36661
-0.0675903
-0.0821525
0.111776
-0.502229
-0.503331
0.0567732
-0.537146
0.102098
-0.650208
-0.383041
0.000805827
0.013072
-0.632666
0.423707
-0.466709
-0.051852
-0.0471906
-0.547128
-0.0526407
-0.0377623
0.566588
-0.00133467
0.637963
-0.00216256
0.11615
-0.915869
-0.853657
-0.0495989
-0.571663
0.766506
-0.669631
-0.0974266
0.00055184
0.000518194
-0.595948
-0.00169942
0.0012425
-0.597769
-0.243689
-0.426552
0.000610456
0.707354
-0.416077
-0.340876
0.0464555
-0.125528
-0.6407
-0.786948
-0.475078
-0.0433891
1.01381
0.84137
-0.0610597
-0.0747818
0.550939
-0.02576
-0.633537
0.526806
0.0585639
-0.750204
0.0537203
0.640017
-0.639907
-0.00311292
-0.895643
0.151752
-0.697958
-0.197685
-0.567077
0.0622609
-0.269416
-0.366405
0.692616
0.100269
-0.00534218
0.0032781
-0.00335912
-0.637435
-0.432987
0.639952
0.145353
0.453851
0.0357677
0.442162
-0.00254677
0.580506
-0.0317048
-0.136961
-0.170052
-0.632571
-0.646671
0.123
-0.591898
0.0769513
-0.570235
0.0872035
-0.522087
-0.309243
0.000758945
-0.37749
0.000656126
-0.0673776
0.0745851
-0.509436
-0.513936
0.0737338
-0.508781
0.00130473
-0.63844
-0.63526
0.0034
0.425138
-0.477159
0.00016956
0.000457353
-0.529566
-0.000234222
-0.000739496
0.637923
-0.00129498
0.639814
-0.00196006
0.223786
-1.13965
0.727298
-0.272302
-0.698685
-0.0174121
0.163617
-0.562282
-0.587833
-0.58882
-0.00660962
-0.590815
0.00254619
0.00496879
-0.604437
-0.699534
0.000679857
0.0561343
-0.646338
-0.673597
-0.283403
0.0894995
-0.538664
-0.224432
0.399853
-0.577112
-0.715925
0.896987
-0.0131857
-0.0388364
0.425006
0.510817
0.559343
0.454466
0.822653
-0.0260028
-0.00233276
0.544943
-0.0438972
-0.609178
0.526644
0.141098
-0.910894
0.355435
-0.638832
-0.00443458
0.473112
0.156672
-0.632897
-0.590843
-0.24565
-0.4837
-0.304828
0.0128602
-0.624915
-0.707541
0.218499
0.0326799
0.00365767
-0.00155177
-0.639541
-0.416469
0.542553
0.0566505
0.480882
-0.00295255
0.611598
-0.0336389
0.569845
-0.0566066
-0.0315715
-0.5115
-0.555242
-0.102572
0.0483249
-0.484417
0.0553625
-0.570309
0.063511
-0.546543
0.0692792
-0.516781
-0.636073
0.00157137
-0.636545
0.00112893
-0.0685709
0.0673334
-0.508199
-0.508773
0.00939423
-0.516871
-0.636495
0.00145447
-0.636981
0.000892911
-0.637375
0.000563134
-0.637711
0.000102068
-0.000527143
0.639435
-0.000915806
0.421407
0.0497442
-0.390773
0.386645
0.1608
-0.191984
-0.947671
-0.051913
-0.838756
-0.0417832
0.135337
-0.655835
-0.624647
-0.581787
-0.0292603
-0.533328
-0.0459127
0.0450151
-0.522209
-0.752135
0.000687283
-0.484453
-0.161206
0.323695
-0.76547
-0.675634
-0.424205
-0.47586
0.85995
0.0127641
0.415482
0.405632
0.265074
0.575413
-0.508712
1.06806
0.456571
0.831368
-0.000400992
-0.0818584
0.534536
-0.0517889
-0.519311
0.526402
0.134007
0.130855
-0.29473
-0.634963
-0.0054207
-0.542927
-0.0944042
0.276526
-0.179184
-0.488114
0.519705
0.0555287
-0.433376
0.129315
-0.320854
0.00390828
0.0105195
-0.653968
-0.283246
0.540899
-0.00336616
0.62756
-0.018915
0.640157
-0.103951
0.538644
-0.0607146
0.0663608
-0.593139
-0.00806344
-0.455112
-0.507943
-0.03892
0.0200493
-0.465546
0.0390161
-0.545814
0.05332
-0.530584
0.0615387
-0.510986
-0.636497
0.00157404
-0.636967
0.00159833
0.00968501
-0.509064
-0.00287129
-0.495643
-0.532365
0.0169485
-0.637538
0.00146434
-0.638187
0.00121212
-0.638845
0.000760149
6.23586e-05
0.412485
0.0080061
0.389094
0.0472951
-0.24137
0.140905
0.261265
0.221553
-0.186398
-0.0411857
-0.906485
-0.0344824
-0.845459
0.0117434
0.0683248
-0.735903
-0.642164
-0.376225
-0.311852
0.115617
-0.446826
-0.315355
0.0936341
-0.300488
-0.787352
0.000734864
-0.443283
-0.0404827
-0.102716
-0.373844
-0.0768779
-0.620267
-0.486378
-0.177651
1.04812
0.734724
0.333332
0.290065
-0.272849
0.388416
0.0702105
0.484929
0.133349
0.898635
0.820535
0.0364139
0.726612
0.0120646
0.525956
-0.051343
-0.497911
0.52611
0.105809
-0.437326
0.0702696
-0.005444
-0.618244
-0.00619911
0.297069
-0.104371
-0.371883
-0.527855
-0.0204931
-0.0989306
-0.483588
0.00401742
0.0483327
-0.706319
0.600082
-0.00365508
0.645975
-0.0217804
0.625287
-0.0040449
0.508068
-0.0733749
0.520725
-0.055484
-0.0934231
-0.538636
-0.00725145
-0.427811
-0.476178
-0.0256217
0.00965211
-0.449576
0.0321156
-0.52461
0.0488655
-0.517911
-0.0168115
-0.497046
0.542548
-0.513808
-0.0271415
0.0117569
0.0242081
-0.516323
-0.00451321
-0.466921
-0.477945
-0.0343987
-0.447589
-0.0291443
0.424793
-0.0122452
-0.0220354
0.390892
0.00620783
0.11482
-0.163825
0.18991
0.42338
0.225028
-0.1673
0.240984
-0.130313
0.0418679
-0.948353
0.0355848
-0.839176
-0.752518
0.000751415
-0.271672
0.0877036
-0.551935
-0.467907
0.101015
-0.454208
0.00999772
-0.413202
-0.430827
-0.0117206
0.00881906
-0.423146
0.0317437
-0.564307
-0.548057
-0.110581
0.789901
0.187905
0.58737
0.624716
0.110008
-0.468176
0.563637
0.23787
-0.0251289
0.483755
0.0814392
0.536839
-0.0511519
0.481611
-0.804699
0.715487
0.101277
0.0894349
0.52122
-0.0464535
-0.509048
0.52577
0.0890868
-0.584187
0.145409
0.125856
-0.563209
-0.00670226
0.273613
-0.3225
-0.0554834
-0.565096
0.0310423
-0.0593242
-0.411489
-0.484322
-0.019759
-0.711342
0.200875
-0.195851
-0.0690225
-0.355519
-0.0068152
0.608354
-0.00484734
0.530405
-0.0263821
0.50752
-0.0601701
-0.049056
0.514792
-0.03477
-0.529487
-0.00881692
-0.409342
-0.45288
-0.0229532
0.00633027
-0.432954
0.030667
-0.506411
-0.0140578
-0.520664
-0.464141
-0.0374183
0.609106
-0.494711
-0.141536
0.104539
0.00420674
-0.366589
-0.457816
-0.0712934
-0.434359
-0.0526014
0.416125
-0.0374778
-0.0402698
0.297586
0.132001
-0.159962
0.309249
0.0406229
0.21152
-0.146454
0.216049
-0.142364
0.230358
-0.0870575
0.193168
-1.14152
0.0429456
-0.688954
-0.710302
0.000729154
-0.42644
-0.00363579
-0.122848
0.0875774
-0.516665
-0.489739
0.0645743
-0.508784
0.00118861
-0.405572
-0.423945
-0.010921
0.0516273
-0.528357
-0.5312
-0.013047
0.759816
0.424796
-0.107343
0.472448
0.0556069
0.557094
0.0369009
0.525341
0.59958
0.0251362
0.555991
0.117654
-0.277573
0.422324
0.0931194
0.0382728
0.526922
-0.00172747
0.487415
0.286285
-0.0822478
-0.0267354
0.626315
-0.820419
0.729093
0.192603
0.126845
0.0480107
0.796662
0.51828
-0.0389642
-0.400053
0.525436
-0.0362956
0.622534
0.232415
0.367889
-0.68468
0.112882
-0.357946
-0.0238787
-0.500014
0.0467348
-0.00700798
-0.42424
-0.544983
-0.00638753
-0.00565155
-0.545108
-0.146387
-0.041607
0.510831
0.547486
-0.0219281
0.534118
-0.0529794
-0.0521513
0.506774
-0.0378562
-0.514584
-0.010085
-0.392927
-0.432298
0.0258769
-0.0268744
-0.431956
-0.340158
-0.119776
0.00892833
-0.529397
-0.51809
-0.0399927
0.506742
-0.388754
-0.259525
-0.200004
0.633416
-0.318933
-0.367085
0.173369
-0.251054
0.511163
0.190195
0.15196
0.421278
-0.169135
0.219949
-0.150354
0.207913
-0.11992
-0.937464
-0.204057
0.305847
-0.731497
-0.263304
-0.405075
0.000620116
-0.425076
-0.000634795
-0.424391
-0.00319039
-0.0836676
0.0755871
-0.508585
-0.508833
-0.00262213
-0.504974
-0.417812
0.00131872
0.0558338
-0.508604
-0.513222
-0.870493
-0.0669711
-0.887643
0.0171496
0.0185341
0.633938
-0.00779679
0.535852
0.054677
0.539318
0.0368217
0.526792
0.552875
0.0282522
0.477437
0.0625413
0.387912
-0.00850705
0.0400226
0.485172
0.407323
-0.00215659
-0.0497574
0.575897
0.684393
-0.0580782
0.746016
-0.0616227
0.906464
-0.160448
0.362533
-0.343713
0.945397
0.0392689
0.685139
0.45286
0.94511
0.131907
0.68329
-0.516012
0.504261
-0.0298566
-0.0295402
0.525148
-0.193554
0.169377
0.748177
-0.518135
0.131002
-0.3731
0.00814582
-0.423193
0.0456879
0.545784
-0.00395014
-0.00571168
0.435862
-0.192061
-0.390189
-0.301283
0.21901
0.0471356
-0.0421461
0.499272
0.505816
0.560936
-0.0487469
-0.0855337
0.539328
0.0313621
-0.52007
0.0241078
-0.447477
-0.395694
0.0147325
-0.034808
-0.411881
-0.511256
-0.126611
0.00337978
-0.57277
0.47158
-0.557736
-0.23968
0.538528
-0.309736
-0.0385965
0.323404
0.25613
-0.144589
0.213825
-0.16301
0.20723
-0.14967
-0.839779
-0.0957739
-0.668838
0.000459105
-0.424756
0.000299753
-0.424661
-0.000364985
-0.422412
0.00141015
0.0122375
-0.0265653
-0.494257
-0.499217
-0.508328
0.00467343
0.0343728
-0.516233
-0.500796
0.523466
-0.325294
0.164361
-0.84851
-0.0582406
-0.307894
0.0595931
0.566549
0.0523633
0.538165
0.0494727
0.526667
0.0893544
0.47746
0.48538
0.020309
0.432915
0.0175381
0.401399
-0.00258314
0.0315223
0.451493
0.46714
-0.0315171
-0.207907
0.725726
-0.104374
0.363607
-0.407558
0.209589
-0.127325
0.667541
-0.00343817
-0.599657
-0.151614
-0.0925637
0.394545
0.682471
0.431327
0.416079
0.588437
0.154445
-0.0851496
0.685853
-0.521717
0.485481
0.00637967
-0.0261092
0.0297374
0.524885
0.486811
-0.0434764
-0.392375
0.100184
-0.367518
0.0401062
0.598806
-0.0418198
-0.202906
0.28283
-0.271985
-0.252482
0.234029
-0.321523
0.148159
-0.099052
0.519334
-0.00848834
0.408708
0.575517
-0.0849363
0.0268903
-0.532227
0.0401955
-0.484293
-0.390306
-0.0453852
-0.0721972
-0.294298
0.671493
-0.541341
-0.369831
-0.0278879
0.245349
-0.479681
0.162258
-0.45825
0.46977
-0.252237
0.260112
-0.190876
0.21613
-0.171911
-0.764791
0.000178994
-0.42475
0.000453583
-0.42492
0.000559647
-0.424246
0.0014688
-0.527627
0.0207093
0.00412311
-0.0117455
-0.486634
-0.490421
0.0523949
-0.541737
-0.460147
-0.436389
0.292856
-0.822837
-0.000194465
-0.0794833
0.144266
0.523654
0.539428
0.0612386
0.5264
0.140193
0.475828
0.0746778
0.434305
0.446754
0.00647014
0.421925
-0.00298757
0.0168814
0.432028
0.42062
-0.00538335
0.29718
0.0190662
0.604568
0.0562189
-0.315519
0.0887189
-0.424693
-0.0181507
0.582167
0.0189632
-0.523641
-0.0526653
-0.0340383
0.241962
0.594955
0.572891
0.400101
0.33912
0.190864
0.524727
0.438072
0.0402507
-0.630725
0.378801
0.258304
-0.131949
0.47984
-0.144516
-0.0724188
-0.0529406
0.52546
-0.339801
0.0724663
0.584489
-0.050791
0.242695
0.0698094
-0.221893
0.212105
-0.262418
0.174923
-0.297166
0.105524
-0.660974
0.4131
0.197083
-0.226576
0.269712
-0.0875797
-0.0175823
-0.56003
0.146236
-0.658417
-0.316267
-0.137008
-0.473557
0.247652
-0.455225
0.26831
-0.278221
0.193663
-0.383603
0.233419
-0.225544
0.219787
-0.194533
-0.424824
0.000253046
-0.425177
0.000709819
-0.425132
0.00144589
-0.557162
0.0310037
-0.0496449
-0.0710458
-0.365944
-0.519356
0.143596
-0.702915
-0.387597
-0.52922
-0.000761402
-0.424834
-0.000184517
-0.0745418
0.525777
0.526125
0.166619
0.499974
0.18199
0.368516
0.0308711
0.420315
0.431762
-0.00336637
0.00502356
0.424017
0.43006
-0.00368175
0.453018
-0.00389149
0.51313
-0.00389375
-0.439107
-0.00139433
-0.45517
-0.0020874
0.535806
-0.00371293
-0.50508
-0.00275505
-0.00331209
0.238915
0.52484
0.525095
-0.203385
0.596162
-0.288919
0.516722
0.0419084
0.061574
0.418393
0.101697
-0.36528
0.479069
-0.189628
0.199509
0.515579
-0.358122
0.206039
-0.236653
0.18634
-0.257248
0.135006
-0.196076
0.251054
-0.245074
0.246081
-0.0873055
0.358953
-0.13831
-0.558729
-0.0242624
-0.386503
-0.128397
-0.369422
0.116004
-0.377566
0.228648
-0.27345
0.158331
-0.313286
0.217592
-0.223349
-0.425359
0.000435428
-0.425658
0.00123551
-0.556067
0.000350439
-0.0955163
-0.658024
-0.583869
-0.16285
-0.678375
-0.424765
-0.000830308
-0.425462
-8.11382e-05
0.179381
0.513363
0.515531
0.173888
0.508076
-0.0040529
0.40344
0.00595033
0.419388
0.421549
-0.000897827
0.421217
-0.00335015
0.421625
-0.00429922
0.422292
-0.0045612
-0.424527
-0.00163318
-0.424128
-0.00248595
0.422973
-0.00439409
-0.423598
-0.00328499
-0.00393688
0.208105
0.516498
0.52956
-0.250831
0.481713
-0.343872
0.27701
0.10877
0.136095
0.135958
0.444809
-0.127436
0.317141
-0.188442
0.198128
0.505893
-0.232951
0.202337
-0.227571
0.156663
-0.209342
0.227445
-0.216527
0.253266
-0.136054
0.278479
-0.213458
-0.473668
0.004416
-0.274915
-0.0970577
-0.267949
0.0853607
-0.304595
0.192198
-0.248056
0.142197
-0.263285
-0.426015
0.000792546
-0.514762
-0.0400697
-0.105064
-0.71581
-0.688582
-0.492832
-0.399001
-0.42543
-0.000862581
-0.426237
0.000141238
0.179718
0.507534
0.506806
-0.0172699
0.521293
-0.00482315
0.414213
0.419988
-0.00149808
0.420849
-0.00421081
0.421777
-0.00522726
0.422671
-0.00545469
-0.425207
-0.00185622
-0.424791
-0.00290218
0.423489
-0.00521281
-0.424208
-0.00386763
-0.00465594
0.212534
0.502093
0.491263
0.133703
0.483968
-0.398462
0.379795
0.182443
-0.115351
0.296438
0.0171271
-0.00302385
0.49179
-0.204126
0.178892
-0.183723
0.207042
-0.161078
0.230621
-0.127631
0.245033
7.47045e-05
-6.11423e-05
6.20326e-06
-1.9781e-05
-0.190801
-0.379925
0.0041329
-0.193688
-0.0748438
-0.188972
0.0716907
-0.234089
9.5225e-05
0.000135438
-0.000155968
-0.510885
-0.00308405
-0.401815
-0.326837
-0.119656
-0.246266
-0.349888
-0.275346
-0.337142
-0.225982
-0.363821
-0.426253
-0.000846587
-0.499434
-0.0113103
0.024438
0.499495
0.514702
-0.0224177
0.538888
0.418383
-0.0056682
0.420584
-0.0064112
0.422082
-0.00672561
0.423162
-0.00653439
-0.426022
-0.00208793
-0.425554
-0.00337025
0.424106
-0.00615699
-0.424913
-0.00450868
-0.00546254
0.0692573
0.555708
0.568326
0.156845
0.509566
-0.0614328
0.325877
-0.0864555
0.255263
-0.0258745
0.231743
0.362458
0.035138
0.430777
-9.49473e-06
9.31012e-05
-0.00014477
-4.61679e-05
5.23764e-05
-9.30694e-09
-0.154084
-0.300685
0.00311677
-0.125114
-0.0618808
-0.123974
1.00581e-05
0.000540219
-0.000455059
-2.50217e-05
0.000114287
0.00130391
0.00363812
-0.00493199
0.164471
-0.56937
-0.408632
-0.303141
-0.322094
-0.24765
-0.315474
-0.20715
-0.310755
-0.49436
-0.00592018
-0.47779
-0.10289
0.0432902
0.491343
0.535574
0.542821
-0.0096014
0.498824
0.0375855
0.451362
0.0407364
0.423188
0.0216402
-0.48713
-0.0093177
-0.451295
-0.0392057
0.413279
0.00375125
0.421771
-0.0139545
-0.0340322
0.315115
0.397439
0.10071
0.347423
-0.0221349
0.261557
0.256946
0.289912
0.0331731
0.0986356
0.230649
0.110113
0.353837
-1.3773e-05
-7.78376e-05
8.2113e-05
9.71126e-05
4.83533e-05
-0.000104056
0.000106559
-2.52254e-06
-0.132813
-0.229753
-1.4793e-06
0.000516674
-7.70882e-05
8.73105e-05
0.00163
0.000852425
-0.00117854
0.000977063
0.00265956
-0.423042
-0.288731
-0.284006
-0.285737
-0.240816
-0.281808
-0.182706
-0.260862
-0.489687
0.00597677
-0.175495
-0.350437
0.106408
0.495048
0.632381
0.48538
0.184586
0.432054
0.0940625
0.406675
0.0470193
-0.550907
0.0519018
-0.432512
-0.1576
0.397052
0.0133749
0.401727
-0.0186304
-0.0648171
0.176548
0.321602
0.0620936
0.263194
0.135663
0.219918
0.190651
0.275808
0.128031
0.238281
0.207111
0.274758
5.35389e-05
-0.000557003
0.000489686
8.93912e-05
-7.01167e-05
0.000137813
1.70812e-05
-0.000125842
0.000126691
-3.37934e-06
-0.0016042
-0.00480928
0.00646698
0.00188341
0.000714393
-0.000967825
-7.37852e-06
0.000446958
-9.83918e-05
5.98545e-05
0.00123499
0.000594471
0.000749616
0.00190256
-0.30387
-0.268866
-0.270014
-0.256539
-0.217
-0.247514
-0.166072
-0.313293
-0.510532
-0.40243
-0.0562001
0.427722
0.274436
0.416057
0.196251
0.394944
0.115175
0.378479
0.063485
-0.296148
0.0732564
-0.179539
-0.364021
-0.0897269
0.368879
0.0229739
0.365381
-0.0151316
-0.0634579
0.125419
0.258277
0.170352
0.240217
0.15382
0.247407
0.182685
0.225948
0.237734
0.219709
6.22246e-05
-0.000529841
0.000125193
-5.75125e-05
0.000146515
-2.75774e-06
-0.000127947
0.000128683
-4.12648e-06
-0.00211708
-0.000935488
0.0014483
-0.00123079
-0.00351628
0.00217147
0.000932815
-0.00122089
0.00143484
0.00051453
-8.29769e-06
0.000356859
-0.000103866
3.57655e-05
0.000950557
0.000393488
0.000577318
0.00131694
-0.303852
-0.235029
-0.249878
-0.223661
-0.42006
-0.197086
-0.355288
-0.120972
-0.212815
-0.0692162
0.3115
0.20067
0.346317
0.161435
0.3484
0.113092
0.34198
0.0699044
-0.291242
-0.101112
-0.3031
-0.0778687
0.333109
0.0318452
0.322837
-0.00485996
-0.0437208
0.162831
0.231205
0.182201
0.206578
0.223653
0.178258
-0.00259686
-0.000955685
0.00143558
4.96321e-05
-0.000454295
0.000134774
-4.57815e-05
0.00013895
-1.30449e-05
-0.000120265
0.00011975
-3.63084e-06
-0.00159289
-0.00057338
-0.000955029
-0.00251164
0.00240515
0.000681783
-0.000915469
0.00166796
0.00069967
0.00109967
0.000365441
-7.09451e-06
0.000260081
-0.000100558
1.60451e-05
0.000731946
0.000238839
0.0004505
0.000859347
-0.289876
-0.195031
-0.31411
-0.172852
-0.283404
-0.151678
-0.230476
-0.122144
0.268686
0.155637
0.297042
0.133078
0.306628
0.103506
0.30541
0.0711225
-0.242938
-0.08865
-0.264764
-0.0560428
0.29755
0.039705
0.284562
0.00812844
-0.0239226
-0.00335949
-0.00179845
0.00256101
-0.00193129
-0.000617296
3.32884e-05
-0.000352823
0.000129523
-3.63733e-05
0.00012315
-1.64782e-05
-0.000105335
0.000105056
-3.37397e-06
-0.00120592
-0.000322506
-0.000749661
-0.0017287
0.00260692
0.000961441
-0.00116324
0.00185401
0.000495735
0.00129434
0.000504949
0.000849173
0.000248205
-5.06465e-06
0.000164578
-9.2485e-05
3.17892e-06
0.000568534
0.000120631
0.000352914
0.000501366
-0.00443801
-0.00304566
0.00412453
-0.00250874
-0.00122088
-0.0014333
-0.000389872
1.91442e-05
-0.000242467
0.000114671
-2.79273e-05
0.000100706
-1.21649e-05
-7.91596e-05
7.57856e-05
-0.000917268
-0.000154889
-0.000590205
-0.00111935
0.00256896
0.000145044
-0.000107079
0.00204711
0.000768311
0.00143349
0.000356616
0.00100289
0.000351218
0.000653802
0.000163089
-2.86343e-06
7.49422e-05
-7.59807e-05
0.000436909
3.63713e-05
0.000276908
0.000221593
-0.00574321
-0.00495871
0.00626476
-0.00340303
-0.00215128
-0.00186081
-0.00079332
-0.00107295
-0.000234197
9.41121e-06
-0.000137249
9.16944e-05
-1.89473e-05
6.36206e-05
-0.000697347
-4.77161e-05
-0.000466569
-0.000643371
0.000829173
-0.00662246
0.00836221
0.00203485
0.000157312
0.00160951
0.000592225
0.00111289
0.000246603
0.000779456
0.000225384
0.000503807
9.64036e-05
-1.03863e-06
0.000325834
-1.2912e-05
-0.0077526
-0.012064
0.0140726
-0.0045768
-0.00378295
-0.00256668
-0.0014453
-0.00137088
-0.000495274
-0.000794806
-0.000136759
2.46459e-06
-4.80565e-05
4.46732e-05
-0.000529347
1.51313e-05
-0.000364378
-0.000276528
-0.000244899
-0.00288146
0.0039555
0.000583618
-0.00517127
0.00161903
0.000147832
0.0012745
0.000430597
0.000862208
0.000164009
0.000600831
0.000128097
0.000374861
4.76521e-05
0.000207643
-0.000220554
-0.00668728
0.00473439
-0.00579796
-0.00646673
-0.0101749
-0.00359569
-0.00274996
-0.00191058
-0.000905451
-0.00100861
-0.000280904
-0.000591923
-7.42311e-05
-3.38327e-06
-0.000385397
3.62427e-05
-0.000480485
-0.000165091
0.000400683
-0.000271542
-0.0020263
0.000392691
-0.003945
0.00128784
0.000134491
0.00100593
0.000286652
0.000669964
9.5095e-05
0.000453949
4.86559e-05
0.000255294
-0.00636189
-0.000636441
0.000309002
-0.00559805
0.00386864
-0.00541222
-0.00836126
-0.00280238
-0.001857
-0.00138693
-0.000527526
-0.00072974
-0.000142202
-0.000430094
-2.95919e-05
-0.000243669
0.000279911
-0.000466289
4.71688e-05
-6.13756e-05
-0.00041487
-2.17774e-05
-0.000278528
-0.00135503
0.000248864
-0.00290605
0.00102024
0.000120384
0.000787782
0.000168505
0.000504611
4.47281e-05
0.000303951
-0.00465455
0.00815093
-0.00985916
-0.0053815
-0.000855218
-0.00467105
0.00313271
-0.00451263
-0.00665144
-0.00214456
-0.00108227
-0.000979346
-0.000278308
-0.000518711
-5.24811e-05
-0.000273258
-0.000282081
0.000728871
-0.000913088
-0.000400555
3.28537e-05
-0.000352018
5.16798e-05
-0.000271037
-0.00083514
0.000139867
-0.002026
0.00080648
0.000101969
0.0006056
6.70669e-05
0.000348678
-0.00293389
0.00692117
-0.00864187
-0.00386717
0.00663591
-0.00453111
-0.00100178
-0.00387588
0.00249755
-0.00379535
-0.00501747
-0.00158207
-0.000458185
-0.000669719
-0.000127764
-0.00032574
2.53688e-06
0.00100946
-0.00129407
-0.000237759
0.00056606
-0.000340774
2.16307e-05
-0.000294408
7.50433e-05
-0.000253166
-0.000441818
5.49082e-05
-0.00127489
0.000641043
6.69293e-05
0.000415746
-0.00145688
0.00433095
-0.00580798
-0.00236095
0.00541468
-0.00318807
0.00529191
-0.00381643
-0.00106293
-0.00321193
0.00194235
-0.003211
-0.0034106
-0.00109916
-1.58301e-06
-0.000453455
0.00029461
0.00103437
-0.00132644
2.05981e-06
0.000769639
-0.000198823
0.000424076
-0.000288224
1.54421e-05
-0.000242809
6.45326e-05
-0.000227023
-0.000159492
-2.49146e-05
-0.000609438
0.000482674
-2.30733e-06
0.00488726
-0.00634161
-0.00119304
0.00316293
-0.00188982
0.00411688
-0.00264315
0.00411797
-0.00321148
-0.00109162
-0.00263779
0.00141298
-0.00272567
-0.00181054
-0.000455085
0.000486236
0.000761539
-0.000953155
0.000247376
0.000789054
1.65312e-06
0.000569175
-0.000165225
0.000301064
-0.000240341
1.31199e-05
-0.000198798
3.60712e-05
-0.000190435
6.48227e-06
-0.000126763
0.00140469
0.00476241
-0.00616913
-3.10777e-06
0.00369745
-0.000976064
0.00224884
-0.00150609
0.00297939
-0.00216904
0.0030726
-0.00274743
-0.00101913
-0.00209606
0.000841627
-0.00226549
0.000494454
6.77535e-06
-1.49761e-05
0.000417578
0.000591344
0.000206635
0.000584046
1.31678e-06
0.00040262
-0.000136575
0.000197171
-0.0001981
1.26462e-05
-0.00015934
4.68575e-06
-0.000120282
0.00279301
0.00406376
-0.00545167
0.00115546
0.00360372
-1.99862e-06
0.00272374
-0.000798716
0.00154142
-0.00119776
0.00201058
-0.00178174
0.00210159
-0.00239401
-0.00077878
-0.00142407
0.000254598
-0.00021238
0.000452231
0.000423902
4.56225e-07
0.000354442
0.000443553
0.000171588
0.000413766
1.05098e-06
0.000265091
-0.000111431
0.000110294
-0.000157445
1.10199e-05