/*--------------------------------*- C++ -*----------------------------------*\
  =========                 |
  \\      /  F ield         | OpenFOAM: The Open Source CFD Toolbox
   \\    /   O peration     | Website:  https://openfoam.org
    \\  /    A nd           | Version:  8
     \\/     M anipulation  |
\*---------------------------------------------------------------------------*/
FoamFile
{
    version     2.0;
    format      ascii;
    class       volVectorField;
    location    "9000";
    object      U;
}
// * * * * * * * * * * * * * * * * * * * * * * * * * * * * * * * * * * * * * //

dimensions      [0 1 -1 0 0 0 0];

internalField   nonuniform List<vector> 
4109
(
(10.1198 0.000519966 0)
(10.1223 0.000554825 3.80042e-21)
(10.124 0.0025064 0)
(10.1218 -0.000210384 -8.1948e-21)
(10.1242 0.00150678 3.94111e-22)
(10.1269 0.00237523 6.5823e-23)
(10.1278 0.00251611 -2.42376e-22)
(10.1334 0.00401899 0)
(10.1288 0.00239052 0)
(10.123 0.000391559 -2.81784e-21)
(10.125 0.00129464 3.42402e-21)
(10.1338 0.00314676 1.51316e-21)
(10.1364 0.00797733 2.23551e-21)
(10.1368 0.00429736 -1.00263e-22)
(10.1346 0.00331442 2.34171e-21)
(10.13 0.00222559 -8.78445e-22)
(10.1243 0.000620785 5.41651e-22)
(10.1267 0.00160585 6.3667e-23)
(10.1356 0.00323643 0)
(10.1404 0.00369846 -3.19187e-21)
(10.159 0.00816728 1.83744e-21)
(10.1427 0.00842383 -5.04223e-21)
(10.1466 0.00601181 -5.56625e-22)
(10.1312 0.00229552 -2.19988e-21)
(10.1285 0.00175791 8.9622e-21)
(10.1256 0.000841903 3.03309e-21)
(10.1329 -0.0021212 0)
(10.1362 -0.00228474 8.95893e-22)
(10.1404 -0.00217463 -6.43794e-23)
(10.136 0.00326136 0)
(10.1419 0.00324068 0)
(10.1465 0.0046506 3.87355e-21)
(10.221 -2.51064e-05 -1.01459e-21)
(10.1507 0.00705235 -7.08772e-21)
(10.1489 0.00602225 0)
(10.132 0.00233854 -1.58267e-22)
(10.1279 0.00153962 -8.90211e-21)
(10.1266 0.000752481 -4.94665e-21)
(10.1327 -0.00217085 -1.43074e-21)
(10.1249 -0.00161759 0)
(10.1421 -0.00304181 -1.31741e-22)
(10.1392 -0.00333601 4.87961e-22)
(10.1418 -0.00893349 -1.53067e-22)
(10.1365 0.00334544 -2.22571e-21)
(10.1421 0.00324053 0)
(9.48074 0.0260941 7.08806e-22)
(10.135 -0.000372943 3.79636e-22)
(10.1489 0.0046705 -1.38791e-22)
(10.1496 0.00403335 6.70975e-22)
(10.2167 -0.00105443 4.61968e-21)
(10.1535 0.00533871 4.24436e-21)
(10.1308 0.00203297 -1.30021e-22)
(10.1292 0.00185212 -8.64342e-21)
(10.1281 0.00102501 1.94478e-21)
(10.1329 -0.00250434 -9.3646e-22)
(10.1266 -0.00186498 0)
(10.119 -0.000357845 0)
(10.1416 -0.00527462 1.3546e-22)
(10.143 -0.00417539 1.51135e-22)
(10.1389 -0.00347868 0)
(10.2401 -0.00276663 -1.44127e-22)
(8.886 0.0142834 0)
(10.1362 0.00330634 -7.59582e-21)
(10.1427 0.00324339 0)
(10.1487 0.00440056 5.96263e-22)
(10.2461 -0.000858801 -3.86146e-22)
(9.74636 0.0280924 1.5814e-20)
(10.15 0.00375839 0)
(10.1508 0.00631904 -9.50003e-22)
(10.2301 -0.000417485 -5.81294e-22)
(10.1298 0.00127665 2.60916e-21)
(10.1309 0.00226336 5.76506e-21)
(10.1355 0.00387971 0)
(10.1319 0.00140896 1.17995e-20)
(10.1331 0.00226748 -1.76075e-20)
(10.1339 -0.00284891 9.4449e-22)
(10.1284 -0.00195634 0)
(10.1266 -0.00176475 0)
(10.1205 -0.000467294 0)
(10.2207 0.0067594 1.69119e-22)
(10.1468 -0.00464913 7.8244e-22)
(10.1415 -0.0048652 -7.2472e-22)
(10.1451 -0.00361151 8.64434e-23)
(10.1395 -0.00389952 0)
(10.3543 0.0186119 1.21438e-21)
(10.258 8.3344e-06 0)
(9.37364 -0.0429341 0)
(9.21597 0.0310586 -3.08504e-20)
(8.84228 0.0202464 -1.0469e-21)
(10.1348 0.00273576 2.97079e-21)
(10.1371 0.003293 7.5989e-21)
(10.1432 0.00334066 0)
(10.1492 0.00450044 -3.1249e-22)
(10.1506 0.00351451 -1.94561e-22)
(10.2875 -0.00495702 0)
(9.99272 0.0122719 0)
(10.1483 0.00594631 0)
(10.2206 0.000547477 3.07461e-22)
(10.1372 0.00394613 6.20939e-22)
(10.1343 0.0032213 -1.16117e-20)
(10.1318 0.00249015 1.32217e-20)
(10.1366 0.00384254 8.363e-21)
(10.1383 0.0045253 5.32695e-21)
(10.1347 0.00274228 6.20781e-21)
(10.1342 0.00122734 2.4234e-21)
(10.1347 -0.00333384 3.94262e-22)
(10.1305 -0.00263757 3.4931e-22)
(10.1263 -0.00154505 0)
(10.1212 -0.000625874 2.82479e-21)
(10.2091 0.00182145 1.5144e-22)
(10.3295 0.00916218 0)
(10.1451 -0.00537342 -3.16482e-22)
(10.1455 -0.00428986 -3.09709e-23)
(10.1454 -0.00403453 0)
(10.1399 -0.00421132 0)
(9.01875 -0.0380158 -1.43675e-20)
(10.1706 -0.0132117 -1.08367e-21)
(9.90986 -0.036208 1.7252e-20)
(9.56753 0.0395128 -7.20177e-21)
(9.04844 0.0114434 1.09998e-20)
(8.75679 -0.00319252 8.60885e-21)
(10.2988 0.00205911 1.3812e-22)
(10.1362 0.00331135 -1.35679e-20)
(10.1394 0.00391113 -2.34733e-21)
(10.1441 0.00368427 -7.50185e-22)
(10.1495 0.00479651 0)
(10.1514 0.00387437 6.21516e-22)
(10.1472 0.0061143 -1.98177e-21)
(10.0767 0.00439768 3.37554e-21)
(10.3092 -0.0016226 0)
(10.2078 0.00091262 2.32995e-22)
(10.1404 0.00521802 6.8799e-21)
(10.1373 0.00405958 -4.32119e-21)
(10.1387 0.00472961 -8.17936e-21)
(10.1409 0.00582844 5.06422e-22)
(10.1372 0.00155843 0)
(10.1375 0.00379761 -4.92193e-21)
(10.1355 -0.00386722 -7.71563e-22)
(10.1307 -0.00281849 0)
(10.1268 -0.00171632 1.06599e-21)
(10.1225 -0.000761073 -2.8245e-21)
(10.2107 -0.00126806 -2.22653e-23)
(10.3261 -0.00306441 0)
(10.1429 -0.00663674 0)
(10.1466 -0.00444286 -2.96844e-22)
(10.1457 -0.00421233 1.48529e-22)
(10.1404 -0.00470174 0)
(9.13902 -0.034634 -8.22474e-21)
(9.85907 -0.039122 5.35302e-22)
(9.08639 0.00958409 0)
(9.64727 0.01862 -3.78391e-21)
(8.76041 0.0225321 0)
(10.2683 -0.00130387 -1.28965e-22)
(10.1399 0.00438016 1.08152e-20)
(10.1395 0.0039162 2.34715e-21)
(10.145 0.00418076 7.13273e-22)
(10.1502 0.0056229 2.30294e-21)
(10.1514 0.00440702 1.08091e-21)
(10.1468 0.00696492 1.21303e-21)
(10.2021 0.00308263 -3.53903e-23)
(10.1214 0.00211355 -3.72216e-24)
(10.3213 -0.00265555 -2.3284e-22)
(10.1441 0.00619549 1.93026e-21)
(10.1402 0.00451995 0)
(10.1416 0.00626925 -3.14424e-22)
(10.1449 0.00725989 -1.66553e-21)
(10.1426 0.0064009 -2.08234e-22)
(10.141 0.0053858 0)
(10.1408 0.00177667 0)
(10.1365 -0.00457631 2.96384e-22)
(10.132 -0.00341945 1.15438e-22)
(10.1281 -0.00209018 -2.30108e-21)
(10.1232 -0.00065023 -4.7663e-22)
(10.2068 -0.00458761 -1.76858e-23)
(10.3265 -0.0041424 0)
(10.1409 -0.0076812 6.04542e-22)
(10.1483 -0.00456044 -1.45679e-22)
(10.1457 -0.0048968 -5.88343e-22)
(10.1413 -0.00561892 -3.6128e-22)
(9.77438 -0.029645 -5.58735e-22)
(8.8828 -0.0128447 0)
(9.70551 0.0164656 4.88706e-24)
(9.09611 0.00600569 4.68602e-22)
(8.76181 0.0207089 1.06595e-22)
(10.286 0.00324627 1.74709e-22)
(10.1456 0.00443689 -2.48378e-23)
(10.1462 0.00485632 2.48296e-23)
(10.1519 0.00621622 -1.19622e-21)
(10.1479 0.00758394 -1.94508e-21)
(10.1549 0.00410065 -8.60338e-22)
(10.1906 0.0062344 1.0362e-21)
(10.1074 0.00497589 -2.30224e-22)
(10.3172 0.000769213 1.33228e-22)
(10.1469 0.00535799 -9.2863e-22)
(10.1477 0.00636389 4.87175e-22)
(10.146 0.00829211 -4.89783e-22)
(10.1487 0.00754904 -6.71497e-22)
(10.1477 0.00932254 4.85868e-22)
(10.1461 0.00770345 2.43817e-22)
(10.1421 0.00501489 1.84601e-21)
(10.145 0.00083915 0)
(10.1378 -0.00529839 -6.32045e-22)
(10.1332 -0.00388674 3.06497e-22)
(10.1295 -0.00251428 1.97401e-21)
(10.1248 -0.000894271 3.73169e-22)
(10.1929 -0.00629366 -3.40456e-22)
(10.3171 -0.00338903 -5.82793e-22)
(10.1398 -0.0078707 3.70543e-22)
(10.1495 -0.00534657 1.67881e-23)
(10.1463 -0.00650718 8.612e-22)
(10.1428 -0.00687209 0)
(9.76129 -0.0191666 -1.30507e-21)
(8.86913 -0.00638757 6.30854e-22)
(9.07553 -0.0015706 0)
(9.68096 0.0117773 5.74685e-23)
(8.75446 0.0197065 -7.33473e-22)
(10.313 0.0116536 1.86702e-22)
(10.1528 0.00532392 0)
(10.1531 0.00566642 -9.09267e-22)
(10.1566 0.00420122 -2.99816e-21)
(10.1737 0.0130445 2.18408e-21)
(10.1067 0.00387608 2.75512e-24)
(10.3164 0.00248544 -4.78337e-22)
(10.1533 0.00704345 1.0858e-21)
(10.1536 0.00847629 2.02526e-21)
(10.1501 0.00887966 2.00864e-21)
(10.1543 0.010199 -1.38574e-21)
(10.152 0.0101481 -1.02223e-21)
(10.1498 0.0104216 0)
(10.1473 0.00743658 -2.07479e-21)
(10.146 0.00574254 -2.12108e-21)
(10.1494 0.000839972 0)
(10.1392 -0.00592444 -2.90195e-21)
(10.1346 -0.00423434 7.59988e-21)
(10.1312 -0.00288184 3.37647e-21)
(10.1263 -0.000970068 -6.36832e-22)
(10.1769 -0.0077753 -2.2464e-22)
(10.3019 -0.00406123 1.64615e-22)
(10.1509 -0.00737679 -8.11171e-22)
(10.1405 -0.00801579 1.06201e-21)
(10.1407 -0.00631359 0)
(10.1483 -0.00889165 0)
(10.1446 -0.00788994 0)
(9.8231 -0.0166478 2.84754e-22)
(8.87942 -0.00898474 4.80431e-22)
(9.68286 0.00519035 5.41172e-23)
(9.07976 -0.00895833 6.50116e-23)
(8.76072 0.0212335 -6.44798e-23)
(10.3285 0.0174029 -4.80846e-22)
(10.1584 0.00307804 0)
(10.1566 0.00473215 4.72709e-22)
(10.1652 0.0165014 7.37502e-22)
(10.1063 0.0038088 -1.11361e-21)
(10.3181 0.00804807 5.72025e-22)
(10.1571 0.00684988 -3.28567e-22)
(10.1584 0.00753066 -2.71809e-22)
(10.1553 0.0119701 -3.84278e-22)
(10.1598 0.0100946 0)
(10.1567 0.0139864 0)
(10.1542 0.0113782 -3.15962e-22)
(10.1523 0.011361 2.68145e-21)
(10.1505 0.0081613 -1.10972e-20)
(10.1503 0.00585808 0)
(10.1538 0.000958001 0)
(10.1372 -0.00503496 4.09567e-21)
(10.1344 -0.00405535 -5.55545e-21)
(10.1283 -0.00111055 2.36736e-21)
(10.1395 -0.00567214 4.09981e-21)
(10.1526 -0.0104447 1.88019e-21)
(10.279 -0.00504769 -3.34706e-21)
(10.1513 -0.00930139 -4.07575e-23)
(10.1429 -0.00690008 0)
(10.1464 -0.00854588 0)
(10.1507 -0.0100446 -5.70412e-22)
(8.88508 -0.00588964 2.92987e-22)
(9.86047 -0.0142526 5.09547e-22)
(9.08965 -0.0249305 8.00996e-22)
(9.6873 -0.00847009 -7.69189e-22)
(8.76628 0.018505 0)
(10.3381 0.0272461 1.06653e-21)
(10.0158 -0.0174768 1.28647e-19)
(10.1675 0.0158547 0)
(10.1636 0.00995986 -2.24268e-22)
(10.1129 0.00559772 -1.49657e-20)
(10.3296 0.00657634 -4.23841e-21)
(10.1529 0.0129987 1.4429e-21)
(10.1558 0.0114504 -4.37793e-22)
(10.1611 0.0120486 2.80623e-21)
(10.154 0.0166679 4.32993e-22)
(10.1632 0.014505 -8.34056e-23)
(10.1585 0.0158278 -1.09645e-22)
(10.1568 0.0125625 0)
(10.1552 0.012274 -6.00853e-21)
(10.1543 0.00894499 2.24481e-20)
(10.1549 0.0063292 0)
(10.1556 0.00431095 6.96436e-21)
(10.1572 -0.000650363 0)
(10.129 -0.000615751 0)
(10.1351 -0.00352137 2.40262e-21)
(10.132 -0.00246954 -3.65149e-21)
(10.1405 -0.00555871 2.0693e-22)
(10.1444 -0.00711151 1.59663e-21)
(10.1386 -0.0145253 0)
(10.2596 -0.00888408 1.46452e-21)
(10.1558 -0.0112636 1.2433e-21)
(10.148 -0.00901828 6.00272e-22)
(10.1532 -0.0104025 0)
(9.88878 -0.00620478 1.22836e-21)
(8.86758 -0.000144015 -6.8518e-22)
(9.10585 -0.0298231 4.09398e-20)
(9.74107 -0.0150063 -2.81304e-20)
(8.78122 0.0160061 3.21146e-20)
(10.3336 0.029972 -9.98729e-22)
(10.0116 -0.00270925 -2.13057e-19)
(10.0142 -0.0198764 5.56084e-20)
(10.0108 -0.0138444 -6.25216e-20)
(10.022 -0.0211836 -8.28352e-20)
(10.0172 -0.00651314 1.88902e-19)
(10.028 -0.0266715 7.34198e-20)
(9.97294 0.0171366 2.76896e-20)
(10.3405 -0.0152702 1.93968e-20)
(10.2798 -0.0294909 -1.82393e-20)
(10.1918 -0.000130713 -1.46929e-21)
(10.2033 0.0017913 -6.07175e-21)
(10.158 0.0114161 -2.76629e-22)
(10.1574 0.017793 0)
(10.1617 0.0209167 -1.63641e-21)
(10.1652 0.0160291 0)
(10.161 0.0176579 0)
(10.1612 0.00788425 4.34411e-20)
(10.1599 0.013781 1.09173e-21)
(10.1588 0.0130598 1.87433e-20)
(10.1589 0.0096605 -1.89008e-20)
(10.1589 0.00369013 -6.73822e-21)
(10.1583 -0.001413 0)
(10.1604 0.000788267 0)
(10.1565 -0.00255343 1.25614e-20)
(10.1319 -0.00168237 -5.35838e-22)
(10.1355 -0.00321063 -7.51736e-21)
(10.1426 -0.00595249 -4.80849e-21)
(10.1462 -0.0074561 -5.17194e-21)
(10.1497 -0.00936058 -7.51893e-22)
(10.1389 -0.0198085 0)
(10.2597 -0.0109698 -2.96917e-21)
(10.1589 -0.0122313 -1.11916e-21)
(10.1552 -0.0102539 -1.64205e-23)
(9.89172 0.000590454 7.66592e-21)
(8.7656 0.00648224 5.6514e-22)
(8.97734 0.0202244 2.60579e-20)
(10.3267 0.0113249 8.99975e-22)
(10.0008 -0.00197602 -5.61882e-20)
(10.0042 -0.0016224 5.62418e-20)
(10.007 -0.00903328 0)
(10.0193 -0.0246189 -2.27619e-20)
(10.0112 -0.024626 8.56242e-20)
(10.0069 -0.017619 7.23079e-20)
(10.1498 -0.0052898 0)
(10.1551 -0.0109821 7.01592e-21)
(10.1567 -0.0250659 5.61747e-21)
(10.0258 -0.00782164 -2.87984e-21)
(10.0314 -0.0193445 -1.91048e-20)
(10.0242 -0.0120515 4.80697e-20)
(10.0341 -0.0269458 -6.54049e-21)
(10.0258 -0.0304481 2.77724e-20)
(9.51769 0.055311 -6.07966e-20)
(10.3523 -0.0333543 -4.64243e-21)
(10.3281 0.00756904 2.7334e-20)
(10.273 -0.00107534 -1.00025e-20)
(10.1691 0.0134005 -1.6044e-22)
(10.1652 0.0072489 1.73141e-21)
(10.1565 0.0225213 -1.28456e-20)
(10.1693 0.0209625 0)
(10.1676 0.0183151 0)
(10.164 0.0197422 -1.07834e-21)
(10.1639 0.010203 0)
(10.1635 0.0149994 0)
(10.1629 0.01358 -6.40162e-21)
(10.1657 0.00202511 0)
(10.1646 0.00461016 -3.14949e-20)
(10.1608 -0.00498942 -7.58871e-20)
(10.1647 -0.0015837 5.13274e-20)
(10.1657 -0.0165321 0)
(10.1735 -0.0339562 1.58572e-20)
(10.1346 -0.00158136 7.96767e-21)
(10.1383 -0.00393392 -4.09909e-22)
(10.1454 -0.00665187 -2.00036e-20)
(10.148 -0.00789068 1.12938e-20)
(10.1514 -0.00974646 2.1263e-22)
(10.1569 -0.0104507 -1.62696e-22)
(10.1441 -0.0206612 8.3956e-22)
(10.2491 -0.0144719 1.05077e-21)
(10.1609 -0.0117263 -4.7093e-22)
(9.93291 -0.0197254 -1.19513e-20)
(8.57837 0.00817389 1.83979e-20)
(10.0004 -0.00286382 -1.16444e-19)
(10.003 -0.0095028 4.95548e-20)
(10.0163 -0.0308118 -2.81099e-20)
(10.0092 -0.0286102 1.95102e-21)
(10.0052 -0.0203309 -1.38033e-19)
(10.1443 -0.0173774 -1.26299e-20)
(10.1378 -0.00784253 1.07166e-20)
(10.1448 -0.0341532 0)
(10.184 -0.0562422 -3.00876e-20)
(10.1624 -0.0451721 -1.65349e-20)
(10.0401 -0.0164031 1.68836e-22)
(10.0392 -0.0109794 -2.70755e-20)
(10.0414 -0.0308637 -1.92633e-22)
(10.0335 -0.0353868 -6.3207e-21)
(10.0237 -0.0376753 -2.92139e-20)
(8.65196 0.044258 -4.5093e-20)
(9.83376 0.103512 1.30194e-20)
(10.3641 0.0415976 -1.3126e-20)
(10.3117 0.0226642 1.22492e-21)
(10.1779 0.0168077 4.54364e-21)
(10.1679 0.0100135 2.79789e-21)
(10.1714 0.0090738 9.22583e-21)
(10.1591 0.0225868 -2.47645e-21)
(10.17 0.0231609 2.72825e-21)
(10.1702 0.0206228 0)
(10.1676 0.0223353 -8.91412e-21)
(10.1674 0.0134659 -1.03061e-20)
(10.1678 0.0161203 0)
(10.1736 0.00194204 -2.22757e-20)
(10.1722 0.00572708 -1.11189e-20)
(10.1733 -0.0033 4.90747e-20)
(10.1709 -0.00946135 -1.8307e-20)
(10.1811 -0.023153 -1.1256e-20)
(10.1951 -0.0411642 4.73384e-20)
(10.1379 -0.00203347 -4.8105e-21)
(10.1416 -0.00475129 8.92599e-21)
(10.1632 -0.0128347 2.21959e-21)
(10.1506 -0.00864159 6.59809e-21)
(10.1495 -0.00850893 0)
(10.153 -0.0103075 1.78048e-21)
(10.1584 -0.0107144 9.90864e-23)
(10.1539 -0.0103366 0)
(10.1536 -0.0178325 -1.82306e-21)
(10.1495 -0.0180287 -1.54273e-21)
(10.2878 -0.00594126 1.34349e-21)
(10.0371 -0.0552414 3.25337e-20)
(10.0008 0.00226681 -1.47027e-20)
(10.0003 -0.00385939 0)
(10.0021 -0.0120285 3.14992e-20)
(10.0142 -0.036393 -7.01733e-21)
(10.0068 -0.033161 0)
(10.0036 -0.0233637 1.0493e-20)
(10.2207 -0.0691124 -5.37914e-20)
(10.1206 -0.0105301 -9.96954e-23)
(10.1008 -0.0129383 0)
(10.1302 -0.0240941 -4.81915e-21)
(10.1345 -0.0432711 -1.23092e-21)
(10.0575 -0.0100883 0)
(10.0784 -0.0094584 0)
(10.1675 -0.0701429 1.45749e-20)
(10.148 -0.055215 -1.32909e-22)
(10.051 -0.026078 1.04525e-19)
(10.0432 -0.0389011 4.99401e-20)
(10.0332 -0.0448671 1.27561e-20)
(10.0211 -0.044646 0)
(8.45732 -0.00199611 3.55704e-20)
(9.41742 0.108926 0)
(10.2835 0.0579735 9.74911e-22)
(10.3183 0.0251726 -1.23573e-21)
(10.1959 0.0180916 6.12436e-21)
(10.1722 0.0124947 1.18976e-20)
(10.177 0.010229 0)
(10.1604 0.0240921 3.77066e-21)
(10.1718 0.0254201 -7.99518e-22)
(10.1732 0.0234647 -3.46064e-21)
(10.1721 0.0251101 -1.67882e-21)
(10.1729 0.016821 2.00821e-22)
(10.1839 0.00153118 -1.28844e-20)
(10.1807 0.00643207 1.44522e-20)
(10.1855 -0.00516123 1.34005e-20)
(10.1849 -0.0134606 -1.21536e-20)
(10.201 -0.0269635 -4.73975e-20)
(10.228 -0.0455921 3.37427e-24)
(10.1416 -0.00257245 -2.67525e-21)
(10.151 -0.00717137 -2.94845e-20)
(10.1464 -0.00598608 1.85088e-20)
(10.1726 -0.0183105 -2.09396e-21)
(10.1648 -0.0129144 -6.35073e-22)
(10.1547 -0.0110897 -1.68923e-21)
(10.1566 -0.0118314 0)
(10.1598 -0.0112441 1.30082e-21)
(10.1569 -0.0120222 8.49967e-21)
(10.1589 -0.0128559 0)
(9.66488 -0.0878238 -8.18741e-20)
(9.38431 -0.0906158 1.46983e-20)
(10.1402 -0.00818013 0)
(10.3265 0.00275161 5.27875e-21)
(10.0004 0.00279587 1.43908e-19)
(10.0022 0.00844814 -1.37005e-19)
(10.0046 0.00103964 0)
(10.0003 -0.00456829 -1.9599e-20)
(10.0014 -0.0137744 7.19484e-20)
(10.0115 -0.0425302 5.93803e-21)
(10.0038 -0.0352118 0)
(10.0013 -0.0245277 -1.65679e-19)
(10.2051 -0.0913282 5.37656e-20)
(10.2663 -0.0674217 2.2633e-20)
(10.1189 -0.0326687 -3.55733e-21)
(10.1015 -0.0267222 0)
(10.1186 -0.0514742 4.91911e-21)
(10.0819 -0.0232856 0)
(10.065 -0.0273022 -8.73585e-20)
(10.1471 -0.0803706 1.53389e-20)
(10.1315 -0.0602304 3.82593e-21)
(10.0554 -0.04023 -2.01101e-20)
(10.0446 -0.0518589 -1.17365e-20)
(10.0301 -0.0533107 4.04733e-20)
(10.0165 -0.052028 -3.83694e-20)
(8.16081 -0.023207 5.03961e-21)
(9.11398 0.0768944 3.35613e-21)
(9.05083 -0.0678012 6.74194e-21)
(10.2356 0.0382475 -2.24817e-21)
(10.3408 0.0272773 2.03923e-21)
(10.2081 0.0225442 -2.33565e-21)
(10.1787 0.0164819 0)
(10.1848 0.0145581 -1.92855e-20)
(10.1621 0.0273227 -4.46459e-21)
(10.1735 0.0282439 7.46875e-21)
(10.1779 0.0266331 1.4822e-21)
(10.1772 0.0273264 1.09637e-20)
(10.1908 0.0106003 1.92791e-20)
(10.1963 0.00463799 0)
(10.2005 -0.00371333 0)
(10.2024 -0.014334 0)
(10.2291 -0.0241538 0)
(10.2668 -0.0398486 -4.67401e-20)
(10.3058 -0.0634218 -7.31545e-20)
(10.1458 -0.00304216 2.67512e-21)
(10.1519 -0.0055166 8.24929e-21)
(10.1666 -0.0137631 2.29589e-21)
(10.1658 -0.0139444 1.748e-22)
(10.1612 -0.0122741 -1.56244e-21)
(10.1627 -0.0135235 -1.82148e-21)
(10.165 -0.0149078 0)
(10.1587 -0.0117139 0)
(10.1617 -0.0138005 0)
(10.1705 -0.00448248 0)
(10.3663 -0.0137625 4.00101e-20)
(10.2982 -0.0295308 -3.04309e-20)
(10.0006 0.00484467 3.59082e-20)
(10.0023 0.0108677 -2.80465e-20)
(10.0049 0.0140298 -6.97941e-20)
(10.0137 0.00793717 0)
(10.0073 0.0109487 0)
(9.99992 -0.0048972 5.48439e-21)
(10.0009 -0.0153978 4.30901e-20)
(10.0078 -0.0459582 -1.27223e-21)
(10.0001 -0.0396319 -2.96757e-20)
(9.9994 -0.0301305 2.68458e-19)
(10.1824 -0.107192 1.4609e-22)
(10.2518 -0.0954578 4.55977e-20)
(10.3319 -0.104506 -7.18522e-20)
(10.0714 -0.04475 -6.55459e-20)
(10.1023 -0.0508466 2.08056e-20)
(10.0892 -0.0406312 3.00053e-20)
(10.125 -0.0862472 0)
(10.1146 -0.0631406 -1.98949e-21)
(10.0586 -0.0588282 -1.62036e-20)
(10.0414 -0.0623456 -4.45318e-20)
(10.0231 -0.0623724 2.25454e-20)
(10.0111 -0.0568715 -1.42444e-20)
(10.3285 -0.0677986 0)
(8.03799 -0.0145053 -4.72648e-21)
(8.96722 0.0593583 2.24416e-21)
(8.85642 -0.0373062 -5.12771e-21)
(10.2084 0.0304258 7.02257e-22)
(10.3521 0.0290933 -6.63251e-22)
(10.2155 0.0307915 0)
(10.1841 0.028472 0)
(10.1922 0.0277734 1.98075e-20)
(10.1773 0.0321413 0)
(10.1638 0.0352918 -7.26438e-23)
(10.1836 0.0299154 -1.439e-21)
(10.201 0.0245144 -1.9796e-20)
(10.2101 0.0182393 0)
(10.2187 0.00815542 0)
(10.2256 -0.00593432 0)
(10.2611 -0.0151317 0)
(10.2944 -0.0339399 3.6556e-20)
(10.3373 -0.0485503 2.13683e-19)
(10.3657 -0.0676024 1.71999e-20)
(10.1492 -0.00212431 0)
(10.1557 -0.00581084 -8.35079e-21)
(10.1675 -0.0131829 0)
(10.1667 -0.0146838 5.86715e-21)
(10.1676 -0.0170149 -1.53519e-20)
(10.1681 -0.0192323 4.69724e-21)
(10.1679 -0.0166756 -1.60862e-20)
(10.1627 -0.0123171 2.59781e-21)
(10.1643 -0.0135496 0)
(10.167 -0.0177196 2.37496e-20)
(10.1792 -0.0113407 0)
(10.2687 0.0176543 1.66352e-20)
(10.0006 0.00602937 -6.63616e-20)
(10.024 0.00792243 2.01958e-20)
(10.0034 0.0164474 0)
(10.0063 0.0204352 -1.20003e-21)
(10.0114 0.0147329 5.68466e-20)
(9.99982 -0.00454552 0)
(9.99905 -0.014728 -4.79603e-20)
(10.0024 -0.0501855 3.29932e-20)
(9.99526 -0.0388608 0)
(9.99592 -0.0297374 0)
(9.99821 -0.0211514 -1.81982e-21)
(10.1556 -0.117108 -2.4141e-21)
(10.3757 -0.1433 1.00529e-19)
(10.2208 -0.121576 -2.29453e-21)
(10.2941 -0.13221 -7.3678e-20)
(10.105 -0.0877126 5.4422e-20)
(10.0758 -0.0604851 0)
(10.0949 -0.0660476 -2.46092e-20)
(10.0558 -0.071485 0)
(10.0311 -0.074057 4.99568e-21)
(10.0152 -0.0694482 4.30494e-20)
(10.0038 -0.0620501 -1.71763e-20)
(10.2778 -0.0441635 0)
(7.97168 -0.0143216 2.79994e-21)
(8.87342 0.0583205 -3.6411e-21)
(8.77242 -0.0338384 -7.44681e-22)
(10.1706 0.0247881 9.09885e-22)
(10.3546 0.0321497 1.3268e-21)
(10.2175 0.0455106 5.98931e-22)
(10.2025 0.0342574 2.15718e-20)
(10.1921 0.0326817 -1.04729e-20)
(10.1839 0.0375356 1.24998e-21)
(10.1676 0.04869 -1.3444e-21)
(10.2142 0.0323663 -2.85285e-20)
(10.2268 0.0271698 1.69498e-20)
(10.2517 0.00459858 0)
(10.2397 0.0185419 0)
(10.2847 -0.0071939 -1.30672e-20)
(10.3523 -0.00680775 7.77388e-20)
(10.3228 -0.0104922 0)
(10.3868 -0.0273263 -2.16565e-19)
(10.4095 -0.0981858 -1.38925e-19)
(10.1534 -0.0019908 4.58361e-21)
(10.1592 -0.00539366 -2.4819e-21)
(10.1663 -0.0119338 1.7908e-20)
(10.1676 -0.0190289 4.06881e-21)
(10.1709 -0.0178567 1.33308e-20)
(10.1709 -0.0223903 -1.93847e-21)
(10.1721 -0.017709 3.79808e-22)
(10.1683 -0.0143513 -2.20007e-21)
(10.1694 -0.01953 8.63992e-21)
(10.1625 -0.0250443 0)
(10.243 -0.011362 -2.50922e-22)
(10.0002 0.00576104 -4.06274e-20)
(10.0016 0.0153464 8.2848e-20)
(10.0388 0.0074385 -2.92974e-20)
(10.0282 0.0195758 -5.33449e-20)
(10.0054 0.0232417 3.26885e-20)
(10.0107 0.0237565 -2.45232e-20)
(10.0205 0.0216421 5.21276e-20)
(9.99812 -0.0115154 0)
(9.99964 -0.00369906 0)
(9.99562 -0.0495859 -1.67874e-20)
(9.99021 -0.0373682 -5.57638e-20)
(9.99263 -0.0285448 1.70859e-20)
(9.99557 -0.0198357 1.86169e-21)
(10.1294 -0.120858 -1.73399e-20)
(10.4297 -0.194636 -1.73247e-19)
(10.1871 -0.141312 -4.57769e-21)
(10.3358 -0.183463 2.64202e-20)
(10.2546 -0.170499 3.00054e-20)
(10.0896 -0.0917743 -4.40433e-20)
(10.0717 -0.0773548 -1.3088e-20)
(10.106 -0.120144 2.43687e-20)
(10.0438 -0.0869662 -7.26039e-20)
(10.0215 -0.0847366 0)
(10.0054 -0.0762378 -1.3416e-20)
(9.99427 -0.062523 -3.59169e-21)
(10.3034 -0.0456939 5.30924e-22)
(7.93228 -0.0224729 0)
(8.78226 0.061569 1.09891e-21)
(8.69506 -0.029976 0)
(10.1348 0.0194116 -1.38084e-21)
(10.3541 0.0365228 -6.07913e-22)
(10.2088 0.0612126 1.07694e-22)
(10.2077 0.0498846 0)
(10.1941 0.0439222 8.86668e-22)
(10.1761 0.0610178 1.56039e-20)
(10.2255 0.0439576 0)
(10.2399 0.0380276 3.35841e-20)
(10.2713 0.0133135 -4.37195e-21)
(10.256 0.0289789 -3.8661e-20)
(10.3098 0.00231968 -2.53051e-21)
(10.3587 0.030833 9.61998e-20)
(10.3963 0.00754389 -4.42897e-20)
(10.4345 -0.0478848 1.61709e-19)
(10.4674 -0.138503 3.97939e-20)
(10.157 -0.00187166 0)
(10.1639 -0.00511606 0)
(10.1708 -0.0110227 -2.43163e-20)
(10.1725 -0.0147183 6.48389e-22)
(10.1684 -0.0231229 -9.37684e-21)
(10.1722 -0.0205549 0)
(10.1739 -0.0264465 -2.40566e-21)
(10.1747 -0.0191567 -3.81606e-21)
(10.1736 -0.0203878 3.51958e-21)
(10.169 -0.0270907 4.29839e-21)
(10.2607 -0.0136621 1.01342e-22)
(10.0001 0.00434253 3.33695e-20)
(10.0004 0.0131241 8.37299e-20)
(10.0018 0.0206625 -1.22442e-19)
(10.0037 0.0245465 -4.44018e-20)
(10.057 0.00733673 0)
(10.0413 0.0194806 3.41633e-20)
(10.0335 0.0301872 -4.1203e-20)
(10.0089 0.0290999 -1.43167e-20)
(10.0168 0.0302425 0)
(10.0272 0.0310996 -8.76697e-20)
(10.0774 0.00695245 -4.24824e-21)
(9.99704 -0.00801752 5.01699e-20)
(9.99954 -0.0022862 0)
(9.99985 0.00370293 0)
(9.98793 -0.047322 -2.07499e-20)
(9.98541 -0.0315884 4.39635e-20)
(9.99237 -0.0154218 -5.40687e-20)
(9.98822 -0.023514 0)
(10.1493 -0.155347 -2.80789e-22)
(10.3836 -0.243807 1.49853e-20)
(10.2114 -0.194255 5.89901e-21)
(10.2897 -0.220186 3.10463e-22)
(10.0817 -0.115745 3.31781e-20)
(10.0606 -0.0989314 5.99595e-20)
(10.1122 -0.160305 0)
(9.98325 -0.0602437 4.40732e-20)
(10.0332 -0.103702 -7.78801e-22)
(10.0094 -0.0952428 0)
(9.99234 -0.0781889 -1.65819e-20)
(10.2869 -0.0421611 -9.93415e-23)
(7.90015 -0.0266554 4.37922e-22)
(8.69855 0.0680692 -6.75104e-22)
(8.64886 -0.0269168 -1.28311e-21)
(10.2081 0.0708776 0)
(10.1219 0.00704096 1.06529e-22)
(10.3478 0.0396371 -1.6855e-22)
(10.2062 0.0673008 -2.32026e-20)
(10.1901 0.0704542 3.65367e-21)
(10.2487 0.0628204 -7.63067e-21)
(10.2332 0.0613089 2.83341e-20)
(10.2906 0.0373747 -5.48144e-20)
(10.3239 0.046014 -1.0051e-19)
(10.2711 0.040816 7.15766e-20)
(10.3827 0.0484044 0)
(10.4462 0.0086873 9.69415e-20)
(10.496 -0.0760163 0)
(10.1591 -0.00160698 4.32203e-21)
(10.1714 -0.00411565 4.46495e-20)
(10.1755 -0.00927213 0)
(10.1774 -0.0143951 -3.76978e-22)
(10.1783 -0.0210457 -1.05024e-20)
(10.1698 -0.0294004 0)
(10.1746 -0.0226159 0)
(10.1776 -0.029575 -3.5266e-22)
(10.1794 -0.0213341 1.01776e-20)
(10.1701 -0.0342303 1.09025e-21)
(10.2637 -0.0191989 -1.02259e-21)
(10.1563 0.00049833 -5.25875e-21)
(10.1517 0.0016034 0)
(9.99937 0.0130886 1.34772e-20)
(9.99925 0.0213936 0)
(10.0029 0.0287729 4.66405e-20)
(10.0068 0.0324836 1.43573e-20)
(10.0576 0.0203723 0)
(10.0442 0.0315117 5.73289e-20)
(10.0346 0.0369022 3.78335e-21)
(10.0144 0.0367302 0)
(10.0243 0.0380319 0)
(10.0758 0.021914 -4.52727e-22)
(10.0983 0.00594288 -4.09029e-21)
(10.1178 0.00349104 0)
(10.1334 0.000152862 4.65613e-20)
(10.1468 0.00504494 -4.61178e-20)
(9.99927 0.000643476 0)
(9.99572 -0.00261318 0)
(9.99966 0.00199757 0)
(9.99823 0.0115388 0)
(9.9716 -0.0514668 -2.15867e-20)
(9.98002 -0.0395283 5.48703e-20)
(9.98184 -0.0249549 0)
(9.98895 -0.00927056 5.35147e-20)
(10.1641 -0.213937 2.06768e-20)
(10.3307 -0.287305 2.31952e-20)
(10.2387 -0.251949 -2.11967e-20)
(10.0514 -0.123415 2.83508e-21)
(10.0774 -0.139385 -6.3056e-22)
(10.0969 -0.191832 1.04675e-20)
(10.1189 -0.229941 -3.6689e-20)
(9.96074 -0.0655828 0)
(9.97673 -0.0760356 -2.64705e-21)
(10.0186 -0.118604 0)
(9.99122 -0.0998408 0)
(10.3062 -0.0435594 0)
(8.60747 0.0737808 -1.72314e-22)
(7.85605 -0.0309228 -2.27008e-22)
(8.7154 -0.0394539 -1.01771e-20)
(10.3331 0.0514111 0)
(10.1662 -0.00309678 -4.15706e-21)
(10.2187 0.0956951 -3.99115e-21)
(10.2414 0.0727532 -1.39902e-20)
(10.3203 0.0856116 0)
(10.2789 0.0802004 0)
(10.3615 0.0806272 -3.89797e-20)
(10.4432 0.064311 4.56737e-21)
(10.5129 -0.00724642 2.4741e-20)
(10.1693 0.000869745 -5.33597e-20)
(10.1803 -0.00708461 0)
(10.183 -0.0128378 1.4445e-20)
(10.1842 -0.0208496 3.78003e-22)
(10.1848 -0.0230861 1.82841e-21)
(10.1726 -0.0367529 -1.15363e-21)
(10.1786 -0.0255402 1.5255e-21)
(10.1826 -0.0324666 0)
(10.2663 -0.0251366 2.92917e-22)
(10.172 -0.0416375 -7.20712e-22)
(10.1568 0.0133444 2.23031e-20)
(10.1669 0.00522802 8.72757e-21)
(10.1612 0.00984519 -2.84215e-21)
(9.99798 0.0212399 1.64187e-20)
(9.99972 0.0292951 -3.19319e-20)
(10.005 0.03722 -1.61254e-20)
(10.0118 0.0417027 1.3678e-20)
(10.0586 0.0335564 0)
(10.0451 0.0409634 2.21302e-20)
(10.0334 0.0450268 -3.57908e-21)
(10.0219 0.0456672 1.12441e-21)
(10.0746 0.0364143 -1.72795e-20)
(10.0962 0.0270845 1.47488e-20)
(10.0917 0.0378131 -7.62907e-21)
(10.1582 0.0227937 1.35619e-20)
(10.1155 0.0254713 -1.18266e-23)
(10.1475 0.0238611 -1.1572e-21)
(10.1332 0.0238483 4.07018e-21)
(9.99665 0.00852395 0)
(9.99262 0.00362698 0)
(9.99564 0.0196127 6.10839e-20)
(9.98541 0.00243636 -1.07266e-19)
(9.96077 -0.0417343 -5.68213e-20)
(9.97242 -0.0311407 2.55089e-20)
(9.98089 -0.0125355 1.70539e-20)
(9.94677 -0.0509476 0)
(10.1844 -0.276239 0)
(10.2717 -0.324596 1.50439e-20)
(10.0367 -0.15562 -2.35333e-20)
(10.0557 -0.210086 3.15712e-20)
(10.0613 -0.16878 3.07788e-20)
(10.0653 -0.248083 -1.58363e-20)
(10.1285 -0.293538 6.14782e-21)
(9.96895 -0.0962866 -4.44832e-20)
(9.94791 -0.0813665 5.2946e-20)
(9.99176 -0.129634 -3.86127e-20)
(10.3892 -0.0544017 2.73563e-21)
(8.5138 0.103512 9.00728e-21)
(7.78546 -0.0326941 -4.77345e-20)
(8.72382 -0.098093 -5.95266e-21)
(10.3602 0.0608921 1.68161e-20)
(10.2567 0.0168129 -1.83124e-20)
(10.2521 0.108542 4.19686e-20)
(10.2629 0.0819243 -2.31976e-20)
(10.3417 0.118032 1.84066e-19)
(10.4263 0.118266 3.11583e-19)
(10.5174 0.0634012 -2.35492e-19)
(10.1814 -0.00176167 0)
(10.1886 -0.00958088 -3.02937e-20)
(10.1911 -0.0191098 -1.08977e-22)
(10.1918 -0.0239271 -1.18449e-20)
(10.1893 -0.0342192 1.18722e-21)
(10.1782 -0.0446754 3.86123e-22)
(10.1845 -0.029427 5.85151e-22)
(10.2331 -0.0325663 -3.0291e-22)
(10.1693 -0.0499294 0)
(10.1672 0.0145989 0)
(10.1816 0.00471244 0)
(9.99304 0.0283355 1.01956e-19)
(9.99684 0.0297955 -1.68165e-20)
(10.001 0.0385781 4.98596e-20)
(10.0089 0.0477079 0)
(10.0193 0.0526446 -4.3554e-20)
(10.059 0.045456 -6.47674e-21)
(10.0451 0.0510343 -1.45656e-21)
(10.0316 0.0546913 1.4847e-20)
(10.0744 0.0484701 1.10195e-20)
(10.0909 0.0553907 1.72292e-20)
(10.1066 0.0473746 -6.09853e-21)
(10.1684 0.0239686 5.94991e-21)
(10.1638 0.0307928 1.44336e-20)
(10.1218 0.0443108 1.16966e-21)
(10.1538 0.0350649 -2.50928e-21)
(10.1395 0.0399785 -1.30602e-20)
(9.99258 0.0164954 5.81422e-20)
(9.98735 0.0117327 7.49437e-20)
(9.98909 0.0248716 -2.21181e-19)
(9.97703 0.00085511 -1.78272e-20)
(9.93091 -0.06676 1.64563e-20)
(9.95032 -0.0236311 -2.77488e-19)
(9.96442 -0.0122857 8.90467e-20)
(9.9341 -0.0260394 0)
(9.98672 0.0317082 4.49152e-20)
(10.2074 -0.353109 -3.2461e-21)
(9.99985 -0.171007 0)
(10.0114 -0.202575 6.7515e-20)
(10.0204 -0.249372 -3.91906e-20)
(10.0698 -0.303679 0)
(10.1383 -0.371491 -4.24244e-21)
(9.94632 -0.162169 -9.44542e-20)
(9.95314 -0.129251 3.23193e-20)
(9.92724 -0.119697 -1.34335e-19)
(10.4166 -0.095615 7.50941e-21)
(8.32327 0.223342 3.30599e-21)
(7.78362 -0.0421735 2.99265e-19)
(8.31894 -0.228069 -1.7042e-19)
(10.3275 0.149782 -1.76339e-21)
(10.2874 0.143082 -1.60305e-19)
(10.3538 0.148162 8.1485e-20)
(10.3953 0.167498 -1.84387e-19)
(10.5062 0.136361 -7.75538e-21)
(10.1937 -0.00418983 1.59475e-20)
(10.1984 -0.0150171 -3.41114e-23)
(10.2007 -0.0227386 1.69363e-20)
(10.1986 -0.0345245 -1.12458e-21)
(10.185 -0.0540418 -7.51559e-22)
(10.1927 -0.033317 1.8517e-21)
(10.2111 -0.0519821 1.66435e-22)
(10.1762 -0.0604706 2.0025e-20)
(10.1818 0.0133085 0)
(10.1974 0.00374116 -1.82026e-20)
(9.99125 0.0370843 -3.71869e-20)
(9.9965 0.0391308 -3.33138e-20)
(10.0037 0.0512519 0)
(10.0162 0.061427 -2.77867e-20)
(10.0295 0.0631352 1.58672e-20)
(10.0593 0.0565636 6.22836e-21)
(10.0439 0.0635529 0)
(10.0759 0.0615506 -3.11112e-21)
(10.0945 0.0631576 -1.73648e-21)
(10.1133 0.0627312 4.44108e-21)
(10.1812 0.0243728 -1.03932e-20)
(10.1751 0.0349705 0)
(10.1314 0.0589187 -5.25718e-22)
(10.1642 0.0447277 -1.05508e-21)
(10.1492 0.0525906 -7.19999e-21)
(9.9791 0.0114772 -3.24787e-20)
(9.98208 0.0238836 0)
(9.96 0.000530476 2.05624e-19)