/*--------------------------------*- C++ -*----------------------------------*\
  =========                 |
  \\      /  F ield         | OpenFOAM: The Open Source CFD Toolbox
   \\    /   O peration     | Website:  https://openfoam.org
    \\  /    A nd           | Version:  8
     \\/     M anipulation  |
\*---------------------------------------------------------------------------*/
FoamFile
{
    version     2.0;
    format      ascii;
    class       surfaceScalarField;
    location    "0.019";
    object      phi;
}
// * * * * * * * * * * * * * * * * * * * * * * * * * * * * * * * * * * * * * //

dimensions      [0 3 -1 0 0 0 0];

internalField   nonuniform List<scalar> 
1107
(
0.00031595
-0.00064318
0.000633348
-0.000306118
0.000616942
-0.000300991
-2.95837e-05
0.000646525
0.000304962
0.000538663
-0.000106484
-0.000737141
-0.000968118
0.000629901
-9.71242e-05
0.000700889
0.000286086
-5.35416e-05
-1.49055e-05
-3.70985e-05
0.000683624
-3.34958e-05
1.45152e-05
-8.75034e-05
0.000180355
-0.000147962
-6.58884e-05
0.000300164
-0.000856951
-0.00126632
0.00059837
-0.000205993
0.00073877
0.000759726
-9.59354e-05
4.14815e-05
0.000812835
-9.45905e-05
3.61659e-06
-4.2643e-05
-1.12889e-05
0.000725105
0.000850176
2.9697e-05
-6.70377e-05
6.46147e-05
-0.000127036
-8.55403e-05
2.52048e-05
-4.80935e-05
0.000225819
-0.000138964
-0.000213892
0.000277009
-0.000117078
0.000296141
-0.000876084
-0.0015079
0.000537714
-0.000363306
0.000755683
0.000826014
-0.000183179
0.000894708
-0.000163285
5.22853e-06
-2.26667e-05
-6.06033e-06
-2.16376e-05
0.000861645
1.01681e-05
0.000754802
0.000939932
-0.000112262
0.000956145
-3.785e-05
0.000944505
-2.38965e-05
3.55359e-05
3.51039e-05
-7.21318e-05
-4.85124e-05
1.35074e-05
-2.64971e-05
-8.11173e-05
-0.000129978
0.00031944
-0.000212138
-0.000321194
0.000395483
-0.000193122
0.000305546
-0.000786146
0.000456545
-0.0016589
-0.000564319
0.000738727
0.000875745
-0.000303241
0.00096021
-0.000247751
2.97292e-06
-1.21322e-05
-3.08741e-06
8.65407e-05
0.00091054
-5.25748e-05
0.000850063
-1.23147e-05
0.00076497
0.00101484
-0.000166891
0.00103725
-6.02653e-05
0.00102635
4.64407e-05
0.000987834
0.000125056
-0.000115791
0.000924125
0.0001795
5.65587e-05
-0.000102522
-3.51541e-05
2.71884e-05
-1.91421e-05
1.02609e-05
-9.56959e-06
-0.000127491
-0.000214625
-6.08554e-05
-0.000169158
0.000683494
-0.000791268
0.000893613
-0.000458127
0.00099723
-0.000351367
2.17682e-06
-4.04807e-06
-9.10584e-07
0.000860967
-6.62189e-05
0.000821018
-2.35296e-05
0.000752656
0.000817389
-0.000144456
0.000251192
0.00106105
-0.000230708
0.00108901
-8.82247e-05
0.00108053
5.49147e-05
0.00103904
0.000166552
0.000959778
0.00025876
4.48425e-05
-3.01766e-05
-7.55213e-05
2.40319e-05
-1.43435e-05
1.12872e-05
-6.39744e-06
4.21736e-06
-2.4997e-06
0.000863451
-0.000638084
0.000984082
-0.000471998
8.71184e-07
-7.01891e-07
-3.9391e-08
0.000328964
0.000667316
-0.000178891
0.000787756
-7.12448e-05
0.000783504
-2.8705e-05
0.000729126
0.000817662
0.000393308
0.000617624
0.000529001
0.000385951
-0.00129198
0.00152365
0.00105599
-0.000302615
0.00109113
-0.000123361
0.00108954
5.6503e-05
0.00104787
0.000208216
0.000951866
0.000354766
-3.50355e-05
-5.4538e-05
5.93969e-05
-1.88868e-05
-3.04922e-05
-8.93993e-06
-1.63443e-05
-3.33318e-06
-8.10644e-06
-6.63275e-07
-3.37179e-06
-7.0266e-07
0.000993431
0.000340629
-0.000948108
0.000370458
-0.000995122
0.00068673
-7.78649e-05
0.000737863
-2.56033e-05
0.000700421
0.000777728
0.000567446
0.000538581
0.000768148
0.000406969
0.00165527
0.000474977
0.000925423
-5.54416e-05
-9.22126e-05
9.31162e-05
-3.00902e-05
-5.58437e-05
-1.42337e-05
-3.22008e-05
-5.27997e-06
-1.70601e-05
-1.05977e-06
-7.59199e-06
-1.76244e-06
0.000109004
0.000292511
-6.08863e-05
0.000225159
-0.000802809
0.000357394
-0.000665786
0.000680341
-2.0343e-05
0.000674818
0.000402677
0.000181303
-4.14448e-05
-0.000119767
6.89989e-05
-2.28493e-05
-7.44391e-05
-1.10247e-05
-4.40255e-05
-4.20573e-06
-2.38791e-05
-9.16164e-07
-1.08816e-05
-2.67861e-06
0.00025074
0.00019294
-0.000151169
0.000196554
-3.2281e-05
0.000134928
-0.000580343
0.000342882
-0.000328328
0.000654475
0.00028185
0.000371568
-1.2469e-05
-0.000127025
1.97276e-05
-7.12972e-06
-7.97785e-05
-3.5564e-06
-4.75988e-05
-1.44166e-06
-2.59939e-05
-3.58435e-07
-1.19648e-05
-3.03704e-06
0.000148451
0.000127281
-8.27926e-05
0.000123095
-7.77106e-05
0.00011842
-1.57732e-05
6.9455e-05
-0.000306916
0.000326147
0.000187502
0.000242799
1.47351e-05
-0.000115004
-2.67561e-05
7.54686e-06
-7.25902e-05
3.39106e-06
-4.3443e-05
1.20617e-06
-2.3809e-05
2.00853e-07
-1.09595e-05
-2.83618e-06
0.000122876
7.29667e-05
-6.85617e-05
8.04362e-05
-4.01337e-05
7.09217e-05
-3.0212e-05
5.82054e-05
-4.5235e-06
1.92313e-05
0.000110575
0.000199803
-8.07221e-05
5.65209e-05
0.000134776
1.65215e-05
-3.56615e-05
-9.58641e-05
7.8123e-06
-6.38809e-05
3.37053e-06
-3.90012e-05
1.21746e-06
-2.16559e-05
2.35985e-07
-9.978e-06
-2.6002e-06
3.64842e-05
-4.42396e-05
4.50884e-05
-3.32139e-05
4.5998e-05
-1.521e-05
3.39302e-05
-5.93691e-06
1.47078e-05
-4.63575e-05
2.47579e-05
7.81205e-05
-2.91008e-05
5.25504e-05
-6.24508e-05
-1.14843e-05
-3.92724e-05
-2.58078e-06
-1.88815e-05
-5.18102e-06
1.5257e-05
-2.51302e-05
2.20249e-05
-2.11762e-05
2.53136e-05
-1.25295e-05
2.17918e-05
-3.07158e-06
8.77093e-06
7.74254e-06
-2.322e-05
4.02353e-05
-3.1777e-06
5.79042e-06
7.36335e-06
-9.97608e-06
-1.18404e-05
5.10462e-05
-5.80874e-05
-1.70214e-05
1.0439e-06
-8.42527e-06
1.51239e-05
4.34206e-06
-1.23051e-05
8.80026e-06
-1.19055e-05
1.20993e-05
-7.96188e-06
1.18438e-05
-2.58143e-06
5.69935e-06
-3.23517e-07
3.40258e-06
-6.25677e-06
-1.32054e-06
2.83853e-06
4.27241e-06
-2.08101e-06
7.64441e-06
-1.51599e-05
9.59652e-06
-9.5535e-07
-1.8156e-06
3.81485e-06
1.96816e-07
-4.28004e-06
2.21856e-06
-5.72336e-06
4.63103e-06
-4.43724e-06
5.56033e-06
-1.67842e-06
3.11792e-06
1.31737e-06
1.47836e-06
-3.11925e-06
3.79518e-07
1.70252e-06
-4.3262e-07
1.19014e-06
-8.99338e-07
2.75487e-06
5.78882e-06
-2.53016e-06
4.3394e-06
-2.15382e-05
1.97289e-05
-9.6595e-07
6.48136e-07
-6.37538e-07
-8.56426e-07
-7.62388e-07
-1.59146e-07
-1.90233e-06
1.01568e-06
-2.10802e-06
2.05026e-06
-9.27172e-07
1.4395e-06
1.92799e-06
2.11731e-07
-8.22342e-07
1.21967e-06
6.38242e-07
5.12091e-07
7.57814e-07
-8.52035e-08
3.76005e-07
-2.87213e-07
5.1193e-07
-5.57221e-07
4.89662e-06
-6.31604e-07
8.26292e-07
-1.16064e-06
-6.97975e-07
4.89672e-07
-6.54036e-07
-2.67498e-07
-2.22068e-07
-6.64584e-07
3.80846e-07
-4.386e-07
5.1233e-07
1.53381e-06
-1.08232e-06
1.47649e-06
1.43681e-06
-5.40773e-09
9.13095e-07
2.3724e-07
4.08474e-07
2.64143e-07
2.15472e-08
6.72437e-08
-4.52956e-08
-8.45576e-07
-4.68329e-07
6.823e-07
-3.79238e-07
5.07554e-07
-4.5337e-07
2.89005e-07
-4.2213e-07
-6.74337e-08
-1.56632e-07
-1.27105e-07
7.37312e-08
9.10734e-07
-1.17036e-06
1.79344e-06
1.03406e-06
-6.79569e-07
9.56544e-07
-4.88494e-08
5.79545e-07
6.61722e-08
2.36109e-07
4.95831e-08
2.19482e-08
-1.18771e-06
-6.66142e-07
1.00828e-06
-5.60644e-07
-2.86911e-07
-2.08983e-07
2.63169e-07
-2.5983e-07
1.26704e-07
-2.1812e-07
-5.94419e-09
-5.33738e-08
1.22763e-06
6.96106e-07
-1.013e-06
5.41923e-07
-6.78215e-07
6.34489e-07
-3.5751e-07
5.64059e-07
-3.33628e-08
2.94475e-07
7.8064e-09
7.1533e-08
-1.42624e-06
-3.98178e-07
6.36704e-07
-8.30424e-07
-3.96352e-07
-3.43045e-07
-1.52849e-07
-1.0191e-07
1.0525e-07
-1.21893e-07
3.04768e-08
-5.9319e-08
-1.46705e-06
-3.69497e-08
7.7766e-08
5.63868e-07
-8.03287e-07
8.09052e-07
4.28985e-07
2.95704e-07
-3.39433e-07
3.50243e-07
-1.43693e-07
2.72295e-07
-1.11852e-08
7.93405e-08
-9.99935e-07
-2.2866e-07
-5.36248e-07
-2.03148e-07
-1.90198e-07
-6.4561e-08
-3.917e-08
2.25264e-08
-2.8843e-08
-1.02353e-06
-1.3349e-08
3.4939e-07
4.95728e-07
2.28959e-07
1.4366e-07
-1.3285e-07
1.60085e-07
-3.14835e-08
6.81542e-08
-6.5011e-07
-1.14795e-07
-3.1186e-07
-8.14856e-08
-8.82521e-08
-1.54807e-08
-6.31585e-09
-6.6065e-07
-2.80978e-09
1.84469e-07
2.75932e-07
9.66856e-08
5.51067e-08
-2.78718e-08
3.667e-08
-3.80676e-07
-4.59783e-08
-1.50986e-07
-1.87518e-08
-2.17961e-08
-3.84476e-07
9.89645e-10
7.59267e-08
1.28538e-07
2.32542e-08
8.8e-09
-1.86095e-07
-1.08696e-08
-4.05482e-08
-1.86351e-07
1.24598e-09
1.81155e-08
3.20555e-08
-5.1418e-08
-5.01709e-08
0.00059296
-0.00137911
-0.00106594
0.000314067
-0.000528692
0.000849519
-0.000535452
0.000528325
0.00129715
-0.000768826
0.00110403
-0.000275076
0.001557
-0.00183207
0.000491063
-0.000300206
-0.00137242
0.000603598
0.000134887
-0.000304045
-0.000393805
4.35186e-05
-0.00011904
-0.000260527
0.000315383
-0.000709188
0.00114976
-0.000834374
0.000614305
-0.000758119
0.00204132
-0.00143772
0.000209241
0.00128338
-0.00107414
0.000983177
0.000345092
0.00098159
-0.00173971
-0.000456128
-5.9643e-05
0.000223292
-0.000282935
-3.72349e-05
-0.000746423
-7.24576e-05
-0.000673965
0.00131837
-0.00139083
0.000484
-0.00125571
0.00136686
-0.00182299
0.000292721
0.000856198
-0.000563477
-0.00120129
0.000729292
-0.00131487
0.00101225
-0.000585574
0.000904212
-0.00215992
-0.000918778
0.000844666
0.0008106
0.00177009
-0.00039027
0.000957716
-0.00140538
0.00128201
-0.000393125
-0.00110724
0.000716972
-0.000752475
-0.00124365
0.00130015
3.83678e-05
-0.00122319
0.00047071
-0.00101497
0.000285181
-0.000189818
0.000123503
-0.000313322
-0.000550462
0.000256171
-0.000806633
-0.00113466
0.000154289
-0.00128895
-0.00200563
0.00104155
-0.00196033
-0.000478073
-0.0001075
-0.000554395
0.000161269
-0.000661895
-0.000102365
-0.00190327
-0.00206269
-0.000858851
0.00166945
-9.07029e-05
0.000867013
0.000306514
0.00146358
0.00197596
0.00164488
3.63229e-05
0.00083069
-0.000903729
0.000940052
-0.000186757
-0.00042049
0.000458858
-0.000259221
-0.000834775
0.000648019
-0.000364065
-0.000671514
0.000307449
-0.000386334
7.25245e-05
-0.000244323
7.17464e-05
-0.000316069
-0.000734887
1.9669e-05
-0.000754556
-0.00126928
-0.000362306
-0.000906975
-0.00226557
0.000994847
-0.00125407
0.000332952
-0.00172974
-0.00150875
0.000254682
0.000932429
-0.00266217
-0.00133314
0.000605714
0.00137025
0.0014364
-0.000962048
0.00133362
0.00068283
0.00205308
0.000194964
0.00124144
0.00113502
0.000169498
0.000965518
0.000817517
0.00040179
0.000415727
0.000709239
0.000781764
-0.000726987
-0.000296341
3.41361e-06
-0.000299755
-0.000751142
-0.000340628
-0.000410515
-0.0012476
-0.000416874
-0.000830728
-0.00175002
0.00201283
-0.00175814
-0.000649343
0.00170973
-0.00243672
-4.84122e-05
0.00123468
-0.00188402
-0.000515341
-0.000570889
0.000813688
0.000762727
-0.00110796
0.00187069
0.00094512
0.00218656
0.0014891
0.000697462
0.00245462
0.00287034
-0.000617266
0.00193273
-0.00131547
0.00305399
-0.000183642
-0.000326511
0.000534204
-0.00104954
-9.37121e-05
-0.000232799
-0.000504227
-0.000118375
-0.000385852
-0.000949103
-0.0004149
0.00169273
0.00024
-0.00164432
-0.000239701
-0.000657475
0.000897475
-0.000906746
-0.000142798
0.000613117
-0.000852818
-0.000293629
-0.00106657
0.000409093
-0.000293299
0.000493102
0.000520389
2.14127e-05
-0.000541488
0.000520075
-0.00104516
-0.000106121
0.000311217
-0.000205096
-0.000647609
-0.000616019
0.00113641
0.00125467
0.00195213
-0.000318095
-0.000727061
-0.00163356
0.00116784
0.000784293
0.000984194
-0.000649366
-0.000268461
0.000368849
-0.000511647
-0.000624827
0.000209927
-0.000255978
-0.000120666
-0.000147795
-0.000506518
-0.00029659
-0.0011556
0.00030278
-0.000258122
-0.000550771
0.000292649
-0.000141678
-0.000467707
-4.39405e-05
0.000761336
-0.000458556
-0.000607528
0.000465851
-8.74528e-05
0.000330559
-1.93412e-05
0.000243106
-0.000197386
0.000178045
1.9407e-05
0.000128868
-0.000148275
-0.000177979
-0.000383076
-0.000226092
-0.000156984
-0.00010411
0.000238886
0.000388992
-0.000127955
0.000516947
0.00100845
0.000286534
-0.000512626
-0.000361075
-0.00108814
0.000455416
0.000553038
-0.000590343
-0.000497793
0.00123971
-2.7017e-05
0.000105137
0.000211869
0.000107195
-0.00025499
-1.13306e-05
-0.000429476
0.000173498
-0.000473417
-9.57993e-05
-0.00015919
-0.00039239
-0.000218892
0.000434844
3.10065e-05
-0.000727493
0.000268937
-0.000486458
1.30414e-05
-0.000217522
-0.000269597
0.000300604
-0.000311667
4.207e-05
-6.85613e-05
-0.000214483
0.000145922
-3.64377e-05
-0.000119382
8.29442e-05
9.48614e-06
3.52412e-06
2.39862e-05
-2.75104e-05
1.08875e-05
-2.00893e-05
4.40755e-05
6.47738e-05
-8.48631e-05
7.42599e-05
-3.86197e-05
-4.62434e-05
-0.000186895
-1.92076e-05
-8.30277e-06
-6.5451e-05
-1.82789e-05
-8.45366e-05
-0.000102358
-0.00024152
-8.4983e-05
-0.000156537
-0.000597609
-9.41449e-05
0.000306014
0.000422802
0.00097584
-0.000381045
-0.000216565
0.000878838
9.70023e-05
9.19942e-06
3.10359e-05
0.000114337
3.18867e-05
8.24502e-05
0.000337901
5.0677e-05
-0.000209867
1.17739e-05
-6.93006e-05
-0.000140567
-0.000288192
-0.000275151
-0.000214845
-6.03058e-05
-0.000432367
-0.000131763
0.000172618
-2.66959e-05
-0.000214688
8.29246e-05
4.90426e-05
2.52174e-05
0.000131987
0.000105291
3.79227e-05
6.15281e-06
6.314e-05
1.57494e-05
-4.01183e-05
-2.53327e-05
-0.000142476
-1.76945e-05
-5.84386e-07
-4.30272e-05
-6.84113e-06
8.644e-06
6.4799e-06
3.96799e-05
-8.37789e-05
-5.86975e-05
-0.000240316
-0.000121241
-0.000119076
-0.000337806
0.000290262
4.7639e-05
0.000387264
4.94585e-05
-3.41545e-06
4.30954e-05
7.90347e-05
0.000126674
8.77656e-05
-2.46256e-05
0.000193057
-0.000215675
7.51088e-05
-0.000275981
-1.70214e-05
-4.89662e-06
-4.76828e-06
1.12482e-05
-9.5346e-07
-2.83561e-05
-1.46711e-05
-8.70536e-05
-1.05025e-05
3.66139e-06
-2.51736e-05
5.4217e-07
2.25392e-06
8.99425e-06
4.53493e-05
-5.47498e-05
-3.23038e-05
-0.000173825
-0.000124367
2.22833e-05
2.3066e-05
0.000148957
2.45901e-05
-1.80125e-06
1.07955e-05
2.50772e-06
-3.14527e-06
1.55426e-06
-2.47002e-07
-4.9942e-07
-2.64585e-06
-1.66006e-06
-2.72817e-05
2.10816e-06
-5.95855e-05
-3.7517e-06
4.29387e-06
-1.64354e-06
3.47152e-06
9.43334e-06
1.36217e-06
3.24994e-05
3.74895e-05
-4.99017e-06
-6.20797e-05
2.49416e-06
2.10606e-06
-2.35307e-06
3.46823e-06
-6.97666e-07
-1.94819e-06
-3.05074e-06
-9.77756e-07
-2.92594e-06
-5.18877e-06
3.54523e-06
-2.69461e-06
-2.50853e-06
3.98503e-06
9.62991e-07
4.50822e-06
6.22445e-06
-2.75621e-06
1.23428e-06
2.06089e-06
-8.26612e-07
-6.33721e-07
5.38113e-07
3.44692e-06
2.33156e-06
-1.42688e-06
-1.62386e-06
-4.18308e-06
-1.91765e-06
-3.54151e-06
4.61081e-07
2.98584e-06
4.9693e-06
4.33558e-06
-3.18833e-06
-9.94751e-07
4.01493e-06
3.20653e-07
1.31856e-06
4.3044e-06
-2.9048e-06
-3.89955e-06
-3.82177e-06
3.50112e-06
)
;

boundaryField
{
    movingWall
    {
        type            calculated;
        value           uniform 0;
    }
    fixedWalls
    {
        type            calculated;
        value           uniform 0;
    }
    frontAndBack
    {
        type            empty;
        value           nonuniform List<scalar> 0();
    }
    defaultFaces
    {
        type            empty;
        value           nonuniform List<scalar> 0();
    }
}


// ************************************************************************* //
