/*--------------------------------*- C++ -*----------------------------------*\
  =========                 |
  \\      /  F ield         | OpenFOAM: The Open Source CFD Toolbox
   \\    /   O peration     | Website:  https://openfoam.org
    \\  /    A nd           | Version:  8
     \\/     M anipulation  |
\*---------------------------------------------------------------------------*/
FoamFile
{
    version     2.0;
    format      ascii;
    class       volScalarField;
    location    "1000";
    object      k;
}
// * * * * * * * * * * * * * * * * * * * * * * * * * * * * * * * * * * * * * //

dimensions      [0 2 -2 0 0 0 0];

internalField   nonuniform List<scalar> 
4109
(
0.0294936
0.0310431
0.029742
0.0310134
0.0317424
0.0314663
0.0319627
0.03015
0.0330108
0.0325449
0.0325708
0.0333186
0.0298507
0.0316902
0.032409
0.0337109
0.0334961
0.03351
0.0338681
0.0325536
0.0299015
0.0313737
0.0314109
0.0345923
0.0346237
0.0350341
0.0295903
0.0316261
0.0298767
0.0348557
0.0335083
0.0328086
0.0313972
0.0312891
0.0322226
0.0351654
0.0350532
0.0361743
0.0318924
0.0298481
0.0315742
0.0317703
0.0302768
0.0355139
0.0341217
0.0954222
0.0481548
0.0334854
0.0329016
0.031251
0.0322432
0.0358538
0.0366373
0.0379046
0.0336101
0.031795
0.0293648
0.0318969
0.0323665
0.0331468
0.0328793
0.121498
0.0367272
0.035103
0.034444
0.0418701
0.0870263
0.0337479
0.0327678
0.0324806
0.0393813
0.0373379
0.0425474
0.0413715
0.0411864
0.0341543
0.0340536
0.0326721
0.0311592
0.0328948
0.0325821
0.0329289
0.0334802
0.0336134
0.0384306
0.0452535
0.100149
0.131043
0.13241
0.0379105
0.0375049
0.0358032
0.0351129
0.0345487
0.0382823
0.0665297
0.0337304
0.032564
0.0427003
0.0410166
0.0398859
0.0429949
0.043713
0.0432582
0.0434024
0.0352869
0.034766
0.0339337
0.0321081
0.034132
0.0388407
0.0333685
0.0338817
0.0341181
0.0346743
0.138209
0.0527445
0.0664523
0.0893268
0.140012
0.137567
0.0432862
0.0397092
0.0385823
0.036838
0.0361073
0.0354206
0.0344098
0.0668935
0.0344532
0.033817
0.043123
0.0417124
0.0448116
0.0440366
0.0455689
0.0443332
0.035968
0.0356529
0.0355739
0.0337213
0.034815
0.039992
0.0339472
0.0345554
0.0350242
0.0352689
0.124862
0.0734923
0.14077
0.0934656
0.143825
0.0504001
0.0405643
0.0394826
0.0376553
0.0368704
0.0361797
0.0354487
0.0343828
0.0614646
0.0330333
0.0426388
0.0412535
0.0456743
0.0437598
0.046447
0.0468461
0.0476455
0.0371339
0.036614
0.0363298
0.0345559
0.0358003
0.0412131
0.0347742
0.0354559
0.0356977
0.0363702
0.0857454
0.156851
0.0884519
0.147526
0.147754
0.0511658
0.038783
0.0397309
0.0378945
0.0361473
0.0370802
0.0356146
0.0672996
0.0339076
0.0409557
0.0420216
0.0451887
0.0433404
0.0464316
0.0480914
0.0477229
0.0507254
0.0379034
0.0376176
0.0376501
0.0361746
0.0360478
0.0414346
0.035504
0.0361264
0.0367111
0.0370908
0.0883097
0.158453
0.154118
0.0931397
0.157209
0.0507772
0.0388934
0.0400826
0.0375248
0.0364929
0.0688108
0.0349688
0.0411787
0.0424252
0.0445454
0.0436488
0.0459791
0.0480246
0.0491898
0.051137
0.053491
0.0391801
0.0385743
0.0383978
0.0372315
0.0369126
0.0424626
0.0370112
0.0362537
0.0400884
0.0375824
0.0382752
0.0849011
0.166439
0.0967886
0.161533
0.16342
0.0516256
0.0392032
0.0399783
0.037898
0.0722138
0.0353522
0.0415113
0.0424203
0.0449574
0.0439934
0.0463104
0.0473383
0.0495491
0.0514384
0.0529531
0.0570317
0.0401948
0.0393394
0.0387302
0.041063
0.0372226
0.0428839
0.0374982
0.0414013
0.0391362
0.0387238
0.173592
0.0846254
0.16889
0.100552
0.173547
0.0522235
0.178178
0.0390001
0.0403527
0.0738771
0.0361562
0.0414863
0.042675
0.0450576
0.0440032
0.0466198
0.0476818
0.0489256
0.0514043
0.0533722
0.0562288
0.0566062
0.0607034
0.0393253
0.0407661
0.0390696
0.0422313
0.042458
0.0379197
0.0437167
0.0391343
0.0404115
0.0397641
0.0849786
0.18151
0.175595
0.099117
0.179863
0.0529398
0.192185
0.184677
0.201925
0.165711
0.185362
0.156429
0.0883255
0.0370695
0.0403172
0.0423384
0.0432153
0.0439457
0.045434
0.0467574
0.0477075
0.0491797
0.0578432
0.0504672
0.0532129
0.0559857
0.0613238
0.0648614
0.0632742
0.0693733
0.0416365
0.0411542
0.0434469
0.0438744
0.0414032
0.039233
0.0452235
0.0398999
0.0409902
0.0874972
0.194266
0.181029
0.0528693
0.291805
0.259642
0.201859
0.172462
0.195364
0.221414
0.0754763
0.0759825
0.0811417
0.159978
0.149359
0.151417
0.148046
0.159317
0.150555
0.0387265
0.0452334
0.0452826
0.0459866
0.0606697
0.0470051
0.0479487
0.0493294
0.0507211
0.0577031
0.0522391
0.0552907
0.0651246
0.0617056
0.0681427
0.0678822
0.0765104
0.0808355
0.0429086
0.0436708
0.0450706
0.0450186
0.0427835
0.0421231
0.0402972
0.0449216
0.0414816
0.0915196
0.218405
0.302446
0.258241
0.177273
0.194673
0.221846
0.0795141
0.0814118
0.0869646
0.0826626
0.085638
0.132774
0.139184
0.139541
0.147218
0.160072
0.240383
0.119264
0.0441264
0.0474638
0.0471607
0.0600608
0.0611583
0.0491738
0.0491163
0.0506094
0.0523905
0.05714
0.0540081
0.0657927
0.0637523
0.0692208
0.0721347
0.0768433
0.0786503
0.0456585
0.0449447
0.0423631
0.0475729
0.0465223
0.0439286
0.0434544
0.0497167
0.0429092
0.041791
0.0498517
0.097311
0.294377
0.324317
0.260233
0.176716
0.19758
0.225335
0.0820357
0.0895074
0.0979474
0.087682
0.0919248
0.122685
0.10927
0.0871524
0.0904033
0.129305
0.137202
0.147586
0.158635
0.257661
0.211403
0.0650569
0.0491779
0.0496755
0.0593154
0.0612047
0.0502859
0.0506704
0.0523627
0.0541236
0.0560351
0.0663927
0.0639626
0.0696927
0.0728347
0.0749041
0.0782349
0.0475254
0.0496678
0.0476117
0.0438727
0.043934
0.0454458
0.0467594
0.0447534
0.0509279
0.0485202
0.169924
0.222057
0.0434372
0.0412712
0.304913
0.257193
0.255513
0.326934
0.265677
0.17739
0.199507
0.230036
0.0861815
0.0808368
0.0934813
0.0994576
0.0972087
0.107371
0.118065
0.0920539
0.0961632
0.127289
0.134558
0.147115
0.162411
0.318256
0.273418
0.319567
0.0649587
0.0524521
0.05115
0.0581017
0.0604347
0.0523505
0.0522428
0.0538896
0.0560982
0.0628431
0.0655458
0.0683769
0.0715453
0.07466
0.0773511
0.0791724
0.05073
0.0507087
0.0453181
0.0450457
0.0462647
0.0476403
0.0493121
0.0529671
0.0500676
0.0451154
0.051083
0.0557028
0.31422
0.260681
0.243283
0.192409
0.191702
0.331402
0.261553
0.17987
0.190323
0.209855
0.0906919
0.0845431
0.0826236
0.117015
0.102104
0.106039
0.0975871
0.101434
0.125649
0.133304
0.149907
0.164021
0.0870295
0.350397
0.329259
0.352852
0.0777375
0.0551279
0.0538551
0.0581752
0.0604453
0.0540304
0.0539128
0.0560533
0.0628485
0.0654781
0.0682847
0.0713625
0.0739964
0.0759228
0.0790993
0.0798324
0.0532129
0.054194
0.0469656
0.046971
0.0482613
0.0496738
0.0508926
0.0548004
0.0517955
0.0508242
0.0469149
0.0479015
0.311106
0.166955
0.230566
0.222495
0.192826
0.334703
0.262779
0.175032
0.195203
0.215467
0.241861
0.0956993
0.0839852
0.0893884
0.0840318
0.103494
0.114226
0.108682
0.12574
0.138973
0.152621
0.160453
0.0879222
0.386882
0.371453
0.405554
0.0809167
0.0590839
0.055965
0.0604228
0.0579751
0.0560392
0.0561969
0.062665
0.0653808
0.0709956
0.0679701
0.0733245
0.0758572
0.0759436
0.0787372
0.082152
0.056871
0.056096
0.0573878
0.0489199
0.04873
0.0508966
0.0524992
0.0535602
0.0530926
0.0487641
0.0504353
0.316673
0.255876
0.144123
0.150031
0.205882
0.197877
0.174268
0.271596
0.331827
0.178324
0.194489
0.211276
0.236283
0.101053
0.0855576
0.0936483
0.0868778
0.0896802
0.110237
0.114315
0.106576
0.127834
0.140724
0.150769
0.164765
0.114244
0.425764
0.426239
0.439779
0.0927116
0.0628323
0.058068
0.0606819
0.0582863
0.058018
0.0632399
0.0653627
0.0704024
0.0681896
0.0741608
0.0760721
0.0781835
0.0808134
0.083856
0.060124
0.0598697
0.0596107
0.0555849
0.0509802
0.0510868
0.0525645
0.0534746
0.0544421
0.0507345
0.0545756
0.332287
0.280528
0.242757
0.220205
0.125446
0.133328
0.147221
0.189091
0.178081
0.162938
0.112964
0.273096
0.326601
0.331985
0.177865
0.194801
0.225571
0.211583
0.099395
0.0881184
0.0924775
0.0893788
0.112206
0.119609
0.105151
0.165273
0.130088
0.137725
0.152394
0.113143
0.473132
0.482269
0.505321
0.0599291
0.0994604
0.0645884
0.0611478
0.0607653
0.066695
0.0651657
0.0716398
0.0720622
0.0693426
0.0750061
0.0783803
0.0814365
0.0646472
0.0625503
0.0620266
0.0576443
0.0568251
0.0527315
0.0522501
0.0541413
0.0559709
0.0525818
0.0562087
0.0689927
0.0741641
0.276864
0.245261
0.214982
0.196168
0.120339
0.135278
0.150085
0.170769
0.160963
0.108479
0.0999264
0.0926451
0.0825023
0.0790683
0.316712
0.265745
0.316411
0.271536
0.166291
0.179113
0.192034
0.220965
0.0985759
0.0905874
0.093406
0.120369
0.112729
0.105503
0.102385
0.152049
0.151899
0.129711
0.141208
0.136832
0.561942
0.529985
0.526446
0.0666832
0.101099
0.0631771
0.0643513
0.0721649
0.0683714
0.0746815
0.0773105
0.0802711
0.0648863
0.0643759
0.059975
0.0586213
0.0573937
0.0549059
0.0544396
0.0561992
0.0607772
0.0546783
0.0761813
0.0696918
0.0729739
0.240222
0.219898
0.193322
0.175527
0.120687
0.137632
0.147274
0.15429
0.11371
0.0996839
0.102293
0.0776867
0.0909418
0.0802071
0.0844412
0.270056
0.251219
0.237679
0.216712
0.160549
0.174382
0.199627
0.149446
0.0968161
0.0934655
0.117314
0.108098
0.113227
0.106384
0.100771
0.142453
0.14388
0.130359
0.109728
0.615738
0.595876
0.585961
0.0835056
0.10598
0.0673841
0.0611357
0.0717547
0.07559
0.0788875
0.0673075
0.0623843
0.0612879
0.0601526
0.0581436
0.0566673
0.0559436
0.05862
0.0562866
0.0741112
0.0703321
0.211557
0.215162
0.197772
0.17387
0.157331
0.127472
0.135488
0.140605
0.116536
0.110487
0.102395
0.078811
0.0817585
0.0956394
0.0849412
0.0893226
0.224162
0.214856
0.211725
0.196732
0.140615
0.162656
0.171076
0.151435
0.194424
0.0963315
0.12077
0.11463
0.111044
0.10422
0.0994699
0.123612
0.130032
0.131213
0.115764
0.730925
0.687014
0.732752
0.133455
0.0708368
0.0790722
0.074713
0.0781528
0.0650864
0.063498
0.0619533
0.0605186
0.0588308
0.0584204
0.0597677
0.058753
0.0741441
0.0679301
0.194005
0.195429
0.176158
0.155573
0.1426
0.125506
0.129216
0.116374
0.108725
0.101897
0.0777907
0.0812213
0.0959921
0.0856277
0.0902391
0.196333
0.189997
0.172801
0.126195
0.132678
0.142127
0.150054
0.175249
0.112162
0.107061
0.101981
0.117577
0.11505
0.122635
0.12614
0.85551
1.1725
0.321298
0.0750205
0.0880401
0.078114
0.0665036
0.0650156
0.0628517
0.0610205
0.0603374
0.0622001
0.0711032
0.0691893
0.175154
0.173412
0.156032
0.141084
0.130885
0.119481
0.111175
0.103882
0.0975483
0.0744834
0.0782483
0.0918788
0.0823183
0.0868735
0.171672
0.173263
0.15635
0.127904
0.133963
0.140934
0.12328
0.155992
0.108651
0.104317
0.112294
0.113359
0.118378
0.198925
1.66912
1.61399
0.579439
0.0801037
0.122179
0.0672455
0.0655821
0.06271
0.0633863
0.0690073
0.0726282
0.0706923
0.156781
0.156541
0.14143
0.129762
0.12095
0.112623
0.105219
0.0989907
0.0758741
0.079843
0.0932561
0.0837555
0.0884257
0.154182
0.154669
0.142085
0.125249
0.129737
0.118804
0.141626
0.106208
0.10896
0.109898
0.112766
4.05677
0.331397
2.33335
2.47953
1.16872
4.49726
0.0682296
0.0658028
0.0670721
0.0668076
0.0772126
0.0734344
0.0713263
0.139985
0.140841
0.130337
0.120652
0.112196
0.10549
0.0990715
0.0773421
0.0806351
0.0940963
0.08502
0.088967
0.13751
0.137775
0.13022
0.119148
0.112973
0.127975
0.130351
3.27161
3.60132
0.635931
3.59948
3.58058
4.88547
3.9671
6.4336
0.0691853
0.0659336
0.0704063
0.0706087
0.0943113
0.0744883
0.0709336
0.13114
0.130744
0.120701
0.112466
0.105464
0.0995873
0.0780783
0.0817625
0.094423
0.089892
0.0856633
0.129611
0.122246
0.113346
0.120803
0.12326
0.122457
2.21227
2.86053
3.18056
1.20751
4.514
3.48146
6.19992
6.25918
0.070938
0.0705047
0.0754171
0.134889
0.075358
0.07157
0.11844
0.118977
0.11166
0.104913
0.0994222
0.0779733
0.0825347
0.094641
0.0904025
0.0862712
0.122343
0.115437
0.116253
0.11843
0.116892
0.116214
1.93733
1.80945
2.49654
2.78404
3.442
5.86292
4.108
3.02871
5.86361
6.05956
0.0731589
0.0746845
0.0803165
0.0744931
0.0754619
0.0775514
0.114041
0.106965
0.102066
0.0968117
0.0814784
0.0818165
0.093736
0.0890157
0.0867671
0.115173
0.112629
0.113614
0.111901
0.110957
1.52362
1.47749
2.16401
2.39513
6.31114
2.98067
5.59524
5.42198
3.68328
2.58971
5.49506
5.85223
0.0749058
0.0774254
0.0775025
0.0788067
0.0819799
0.109998
0.105375
0.101391
0.0970385
0.0836362
0.0848375
0.093675
0.0902978
0.0875762
0.109164
0.107279
0.105299
6.14483
1.19363
1.20101
1.84529
1.98295
5.89588
2.58193
5.25547
5.15515
4.96549
3.23834
2.13125
5.09628
5.64067
0.0772135
0.0780766
0.0802056
0.0816228
0.104231
0.102421
0.0998778
0.0967542
0.0841732
0.0862864
0.0938316
0.0910669
0.0885802
6.72964
5.57144
0.933874
0.961265
1.51151
1.46817
5.43222
2.22692
5.10364
4.80246
4.70482
4.49141
2.74406
1.5743
4.65419
5.42227
7.71669
6.19521
5.002
0.725569
0.737609
1.09831
0.59899
4.94388
1.88986
4.96096
4.68335
4.35604
4.245
3.98916
2.11203
0.670435
4.12945
5.19132
8.45696
7.31795
5.61841
4.43877
0.54872
0.491805
0.398232
4.43007
1.55551
3.49729
4.65096
4.2607
3.91315
3.765
3.42568
1.04657
3.41802
9.87245
7.9914
6.84936
5.00463
3.87346
0.367041
0.12728
3.86017
1.3641
2.74108
3.0513
4.32783
3.838
3.46238
3.23623
2.7134
2.17239
11.193
9.11875
7.55504
6.31316
4.36288
3.27775
0.0831681
3.12349
1.42683
2.37754
2.62961
3.98911
3.40454
2.97518
2.57808
1.51257
11.8849
11.1968
8.24723
7.11884
5.6797
3.68152
2.56273
1.72014
1.3082
1.27811
2.05788
2.21898
3.62357
2.93447
2.37937
1.48397
12.1807
11.5555
10.9897
7.35496
6.64365
4.90828
2.89179
1.35748
1.48532
1.19871
1.14328
1.76406
1.80815
3.20569
2.35858
1.39306
8.19806
12.1437
11.0027
10.5337
6.45784
6.09142
3.95746
1.65784
1.59759
1.38045
1.09211
1.01802
1.48133
1.38834
2.66781
1.41465
6.91153
8.08294
11.827
10.2448
9.88005
5.55288
5.28125
2.57451
1.60918
1.48252
1.27296
0.984508
0.895795
1.19459
0.948735
1.76089
6.28388
6.6173
7.74935
11.2345
9.30174
9.05273
4.81216
3.46503
1.51209
1.49312
1.36503
1.15974
0.870528
0.763075
0.869634
0.468588
6.29896
6.10068
6.19688
7.25097
10.4077
8.2994
8.027
3.54787
1.33094
1.40528
1.37474
1.24212
1.03567
0.740162
0.587249
0.403893
6.85207
6.09845
5.78542
5.70314
6.6329
9.25284
7.27763
6.5308
1.42725
1.21902
1.29609
1.25101
1.10841
0.8896
0.566534
0.262906
8.06081
6.54437
5.77281
5.38024
5.15396
5.89865
7.7484
5.84154
2.64735
1.27946
1.1104
1.1813
1.11649
0.952126
0.690987
0.250282
12.0184
7.92396
6.1235
5.36286
4.90071
4.53978
4.9852
6.14637
3.54069
2.30459
1.14515
1.00096
1.05558
0.95937
0.741553
0.334336
11.7873
12.0208
7.5665
5.63386
4.88131
4.33939
3.81677
3.69473
4.95585
3.08138
1.99859
1.02014
0.884986
0.907651
0.747867
0.371163
11.1002
11.5008
11.7703
7.04309
5.09016
4.31873
3.65322
2.89411
5.13991
4.64474
2.64903
1.71424
0.89775
0.752481
0.70688
0.377011
9.72964
11.109
10.9957
11.3084
6.39839
4.48236
3.63044
2.76258
5.23698
4.71763
4.32293
2.23271
1.43913
0.764238
0.576738
0.348483
8.40364
8.96516
10.9092
10.2888
10.6327
5.62521
3.75762
2.73001
5.56616
4.78094
4.29237
3.98433
1.81902
1.15965
0.587421
0.259307
7.78575
7.9336
8.09735
10.5
9.47019
9.69958
4.69171
2.80405
5.85962
5.12661
4.33434
3.86752
3.61862
1.39805
0.842273
0.262832
6.75508
7.38201
7.48553
7.1767
9.87294
8.57708
8.27136
3.58514
6.65214
6.26605
5.42417
4.67828
3.89331
3.43182
3.19909
0.952086
0.382996
6.13731
6.2189
6.91621
7.01501
6.21106
8.97674
7.60638
5.67323
5.08225
6.44244
5.93836
4.97188
4.22047
3.44417
2.95771
2.65519
0.456138
6.24966
5.5621
5.63561
6.38916
6.5157
5.19641
7.65317
6.02905
3.40975
4.53507
4.68564
6.22489
5.56953
4.49926
3.74182
2.95731
2.373
1.72595
5.84711
4.99034
5.01551
5.74355
5.93707
4.34526
5.36623
2.94591
2.06784
4.31061
4.02637
4.2584
6.00323
5.16713
3.99671
3.21285
2.36036
1.40391
2.44261
3.56293
5.39517
4.42561
4.37045
4.96658
5.13596
3.17568
2.539
1.63353
3.82476
3.5459
3.81488
5.77789
4.71759
3.43135
2.55267
1.3559
1.98657
3.1355
4.91516
3.86043
3.68723
4.00697
3.45004
2.18678
1.28416
3.37771
3.09111
3.34976
5.54634
4.18055
2.7123
1.43978
1.61986
2.74905
4.40839
3.26563
2.89635
2.62368
1.85781
1.00845
2.95789
2.64639
2.83227
5.30094
3.44674
1.48557
1.31481
2.39059
3.84282
2.55427
1.67447
1.55495
0.786436
2.54671
2.17961
2.16833
2.14595
1.0508
2.0447
3.11244
1.35872
1.36863
0.596487
2.111
1.60599
1.04413
0.805817
1.68131
1.72991
0.399702
1.56809
0.662607
0.539082
1.2321
0.0959858
0.646728
0.14857
0.474832
0.0862871
0.0843409
0.0856279
0.0856374
0.0870848
0.0868568
0.0875062
0.0875386
0.0882495
0.0827381
0.083842
0.0842684
0.0854681
0.0857857
0.086933
0.0875458
0.0918805
0.0933105
0.0946493
0.0968906
0.0983378
0.0884445
0.0892437
0.0882735
0.0884319
0.0887419
0.0883793
0.0896063
0.089337
0.0903769
0.101023
0.10218
0.0814159
0.0825204
0.0831422
0.084232
0.0848573
0.0858044
0.0867988
0.0878894
0.0888486
0.0898277
0.0909304
0.0922984
0.0940892
0.0955644
0.0986381
0.100129
0.105622
0.106372
0.0902313
0.0911045
0.0921594
0.0931212
0.0944965
0.0959455
0.0983219
0.0896359
0.0900934
0.0896196
0.0896326
0.0905179
0.0898749
0.0918757
0.091356
0.0927015
0.0981484
0.0999652
0.110622
0.112296
0.104854
0.104607
0.109701
0.0804115
0.0814368
0.082302
0.0833111
0.0842611
0.08526
0.0864637
0.087395
0.0891239
0.09021
0.0916705
0.0929709
0.0969911
0.0984096
0.101481
0.102632
0.107156
0.108419
0.11356
0.115708
0.122072
0.122204
0.129181
0.0910777
0.0918022
0.0927632
0.093781
0.0952502
0.0908136
0.0910864
0.0911649
0.090853
0.0924218
0.0916466
0.09512
0.094064
0.0933456
0.0956629
0.099314
0.0995456
0.104584
0.106207
0.125817
0.113811
0.121481
0.110578
0.113483
0.0800088
0.0809392
0.0820812
0.0830791
0.0843398
0.0852565
0.0867448
0.0876446
0.0892597
0.0902237
0.0924696
0.0945984
0.102701
0.0998938
0.106146
0.108653
0.11311
0.114599
0.119479
0.129215
0.134879
0.135723
0.149451
0.152076
0.145784
0.154316
0.15489
0.196073
0.0920559
0.092814
0.0936341
0.0945889
0.097469
0.096225
0.0920967
0.0921329
0.092779
0.0923016
0.0952382
0.0942256
0.0934811
0.0996736
0.0983495
0.0959505
0.0983942
0.100293
0.24861
0.214755
0.307498
0.104694
0.105005
0.110558
0.112796
0.127414
0.129531
0.165378
0.144629
0.121941
0.127992
0.0807283
0.0813207
0.0829418
0.0835516
0.0853456
0.085889
0.0878727
0.0886137
0.0917916
0.0910433
0.0953733
0.096737
0.101599
0.103956
0.113468
0.111659
0.120896
0.129715
0.1367
0.13747
0.149314
0.714219
0.702251
0.49376
0.1623
0.171119
0.186405
0.192703
0.202536
0.217849
0.218437
0.491294
0.292923
6.4368
7.00326
6.85428
6.54128
7.16337
7.18529
6.95675
6.58404
0.0931955
0.0935566
0.0945594
0.0954931
0.0971854
0.0961144
0.0934787
0.093297
0.0952796
0.0944604
0.093942
0.1019
0.100516
0.0992004
0.0980618
0.096705
0.0996358
0.105651
0.101574
0.104954
6.03563
5.06815
1.86206
1.31917
0.772669
0.174872
0.249622
0.305621
0.564921
0.112868
0.113183
0.114212
0.113725
0.125807
0.127916
0.139717
0.136096
0.164177
6.22904
6.91994
4.54367
7.1439
7.20557
7.19013
5.44581
6.07987
6.16811
7.17434
0.0869396
0.0845242
0.0886557
0.0873075
0.0910506
0.0900409
0.093645
0.0934698
0.0965865
0.0963512
0.100438
0.100347
0.108105
0.11118
0.11675
0.115759
0.121466
0.146911
0.124647
0.15978
0.211186
0.203539
0.247656
0.24881
0.243999
1.27997
1.78635
3.42003
2.48508
1.29576
0.996536
0.356792
0.39488
0.499019
0.505194
1.02145
0.596161
0.580047
3.88678
6.05867
4.96665
5.26926
6.15816
6.68964
6.92247
6.91551
4.97661
4.92457
7.12859
7.08255
5.57466
5.79463
6.38375
7.01994
6.60015
6.96502
0.0944606
0.0946745
0.0955556
0.0968505
0.0972286
0.0962144
0.0957139
0.0950037
0.0946376
0.103986
0.102515
0.101115
0.0999382
0.0988843
0.0978917
0.097509
0.10051
0.100883
0.104797
0.105282
0.10982
0.104593
2.68323
4.52681
3.53002
5.91341
4.61558
1.67622
2.70585
1.43465
0.753096
0.113226
0.609695
0.200283
0.348194
0.256027
0.123383
0.120304
0.129427
0.124287
0.132217
0.13093
0.149164
0.143199
0.200555
6.24603
7.0875
5.94607
4.28848
4.70122
3.65188
7.32306
7.42704
7.24727
5.99558
4.52767
5.61519
0.188898
0.103219
2.10987
0.646675
0.135786
0.105393
0.124296
0.105202
0.119352
0.104628
0.117842
0.112418
0.109784
0.121546
0.12051
0.143059
0.176025
0.165023
0.201407
0.283351
0.25259
0.336704
0.661793
0.377534
0.407564
0.903217
1.02977
0.552133
0.485811
0.655925
0.633669
0.798757
0.799573
1.92845
2.54676
3.68275
2.9781
2.08555
1.5157
1.16534
1.16963
1.7576
1.31105
1.42956
4.93842
4.32186
5.15462
6.16917
5.8676
6.84964
6.64571
7.10547
7.01177
7.05421
5.21979
5.77638
6.98978
7.00407
6.8452
6.81286
6.512
0.0976844
0.0956962
0.0957571
0.0966033
0.0971998
0.0964497
0.0961673
0.0983368
0.106113
0.104606
0.103011
0.101721
0.100582
0.0994377
0.0988004
0.0978644
0.108095
0.10574
0.107976
0.110326
0.108803
0.110229
0.101443
0.101338
0.101781
0.103439
0.114051
0.108337
0.109737
0.105463
4.62892
4.09853
3.03552
0.983669
2.53503
1.74119
0.119359
0.13339
0.131951
1.09819
0.262827
0.561281
0.363528
0.143684
0.139927
0.152564
0.148626
0.176294
0.165163
0.276584
4.41582
6.6132
7.2222
6.23259
5.30775
7.45498
3.3564
3.90486
2.72588
7.66159
7.44951
6.66568
5.50142
3.99912
4.7404
4.7404
1.19307
0.340598
4.56649
3.58397
0.686536
0.335032
0.521639
0.254502
0.401576
0.216299
0.342394
0.182566
0.247563
0.446003
0.780197
0.554934
0.962936
0.620979
0.758375
1.34635
1.67205
1.83011
1.18532
1.19743
1.86093
2.09386
1.24459
1.37535
1.67299
1.58401
1.95975
1.67441
3.9492
2.76626
3.31121
3.14324
2.68373
2.53673
2.90877
2.1901
2.70127
5.38852
4.52444
6.74405
6.05955
6.36846
7.075
6.97284
6.92105
7.00103
6.52568
6.61315
0.10997
0.108458
0.0970656
0.0982449
0.097538
0.0969995
0.0970138
0.0985746
0.0997025
0.104782
0.102922
0.102217
0.10075
0.100235
0.0991504
0.0988472
0.098096
0.106734
0.104837
0.105984
0.107102
0.105414
0.106762
0.101122
0.101722
0.103053
0.105619
0.120555
0.113701
0.11473
0.108669
1.7989
2.65234
3.52802
0.129592
0.142664
0.141374
0.163851
0.159503
0.784074
1.839
0.360437
0.709431
0.199216
0.182443
0.274051
0.236167
0.369719
3.59599
5.12885
4.76279
6.87821
6.98478
7.36237
7.79108
7.71929
2.65453
3.60157
7.408
6.47088
5.72583
4.0517
4.76346
4.77063
2.08613
4.79471
5.11645
5.63871
3.79035
2.39499
5.78655
6.27726
3.38035
1.73734
2.62097
1.23131
2.01874
1.02319
1.35982
1.58032
1.20699
2.18801
1.79548
1.73123
1.70392
1.82592
2.77668
2.87111
2.99922
3.31615
2.53552
2.37395
3.40262
3.59106
2.57464
2.82581
3.30468
3.11559
3.49687
4.70736
4.18917
4.54818
3.71771
4.26364
4.23167
3.99012
4.41074
6.37126
5.7064
6.97061
6.8181
6.91131
6.92593
6.35207
6.45629
0.111828
0.109318
0.107507
0.106011
0.0985782
0.09843
0.0987411
0.0995365
0.100674
0.103867
0.102439
0.101764
0.100651
0.100238
0.0994199
0.0994636
0.103702
0.104573
0.103088
0.104272
0.103446
0.104478
0.102066
0.102167
0.104016
0.109965
0.105688
0.102594
0.130488
0.121549
0.122582
0.115444
0.138607
3.15766
2.29757
0.154918
0.151594
0.184898
0.179396
0.263955
0.31314
0.249324
0.790804
2.07683
0.956278
0.49963
0.417749
0.862961
5.07807
4.23258
7.38244
6.75819
7.96081
7.84687
7.56284
7.28685
6.8823
6.53759
0.210303
0.705227
4.68034
5.55236
1.2822
3.89453
5.77805
5.47014
6.30832
6.05834
5.52898
6.20889
5.92867
5.31247
5.37366
3.55666
4.29004
3.29637
2.92026
2.89805
4.23725
3.34028
4.18603
3.51534
3.69392
4.28962
4.65823
4.60093
4.71081
4.25144
4.11752
3.76092
4.91981
5.09257
4.25953
4.4455
5.11526
5.01056
5.81482
6.08002
5.63478
5.50611
5.80988
5.48537
5.69679
6.82123
6.70143
6.68324
6.72462
6.07286
6.17602
0.0882907
0.109209
0.112428
0.111046
0.109207
0.106993
0.105569
0.104043
0.09964
0.0998218
0.100171
0.100278
0.102631
0.102369
0.101657
0.10091
0.10042
0.100059
0.101264
0.102194
0.101461
0.102485
0.102115
0.103026
0.102248
0.106259
0.107075
0.116214
0.105184
0.106722
0.142523
0.126347
0.130043
0.117115
0.159566
0.186124
0.16858
4.47177
2.79401
0.249143
0.210174
0.489355
0.407276
1.21307
1.04717
0.886829
2.33045
3.05908
1.65863
7.34028
6.22699
8.09277
8.20888
7.95428
7.56008
7.10168
6.74536
0.147767
0.452883
4.10861
6.35621
0.8439
2.3848
6.33671
6.15551
5.94289
6.54584
6.07196
5.58294
6.94278
6.23707
6.87169
6.45789
6.04483
6.03681
5.64051
4.70242
4.75392
5.93695
5.41738
5.16846
5.39513
5.61139
5.49959
5.75631
5.68185
5.63636
5.58209
5.88745
5.132
5.41433
5.92298
5.91086
5.6386
5.73418
6.0363
6.0764
6.29388
6.22872
6.63647
6.40273
6.38137
6.46175
6.51024
5.76735
5.92023
0.0812995
0.0851339
0.0894784
0.108371
0.111028
0.110167
0.108877
0.108317
0.106996
0.105156
0.102738
0.104171
0.107606
0.108723
0.101438
0.100386
0.0997168
0.0998966
0.100681
0.0999316
0.0998273
0.100272
0.100896
0.100628
0.101576
0.101466
0.102139
0.103056
0.10554
0.108769
0.114529
0.117222
0.110813
0.139046
0.163132
0.125745
0.142446
0.177361
0.231363
0.200845
0.250789
0.389687
0.284823
6.40882
5.35205
1.11992
0.820627
2.52803
1.97438
4.38411
5.80098
3.95213
8.4101
8.36403
8.49794
8.01736
7.69681
7.18727
0.132688
0.31992
3.27294
6.21646
0.558799
1.58587
6.09925
6.91294
5.33415
5.50438
6.67879
5.91882
6.84434
6.61171
5.25083
5.76543
6.50712
6.38551
6.50642
6.22897
6.43511
5.79612
5.99384
6.12464
6.12152
5.87726
5.92121
5.76599
5.79622
5.75975
5.6538
5.70008
5.57787
5.42404
5.41727
5.9467
5.93573
5.96721
5.85134
6.00704
5.95802
5.98489
5.86725
5.99566
6.23274
6.29586
6.00683
5.58531
5.75072
0.0798493
0.0815291
0.0836306
0.0882436
0.0915965
0.107485
0.107288
0.106747
0.105892
0.105941
0.101945
0.103819
0.103085
0.104861
0.105327
0.105129
0.104386
0.105593
0.103394
0.103374
0.101401
0.101475
0.103494
0.100557
0.100018
0.100393
0.100161
0.101776
0.100291
0.100535
0.100848
0.101112
0.101416
0.101964
0.102342
0.105696
0.111393
0.10773
0.115559
0.124373
0.122144
0.130451
0.158436
0.182935
0.142597
0.161878
0.21163
0.277314
0.677544
0.611717
0.482782
0.913002
1.83728
1.79772
8.61334
7.78233
4.25682
4.43234
6.74632
7.91596
6.74938
9.19678
8.70581
8.46991
8.02906
0.125273
0.244891
2.48014
5.11468
0.385956
1.081
5.20513
7.04069
5.64777
5.15749
6.79144
6.3477
5.66367
5.30647
4.96193
4.94014
6.01057
6.12612
5.20823
5.65349
5.40157
5.83878
5.75968
5.79526
5.78945
5.42201
5.45126
5.01482
5.00211
4.89225
5.17017
4.77341
4.62975
4.06491
3.6997
4.36694
4.45238
5.39142
5.81359
5.81685
5.30366
5.40224
5.45351
5.408
5.0428
5.4774
0.104901
0.0799018
0.0807002
0.0819037
0.0839257
0.0863228
0.0905614
0.094118
0.0809468
0.0809733
0.0825052
0.082259
0.0844166
0.0837397
0.0994837
0.0998617
0.0976155
0.0980875
0.0956136
0.0962183
0.0934581
0.0942581
0.0866422
0.0856736
0.0889929
0.0876981
0.0912483
0.0921056
0.0898988
0.104495
0.103983
0.103446
0.103806
0.102818
0.102498
0.103224
0.102315
0.102511
0.101934
0.103083
0.100439
0.100736
0.098546
0.0988951
0.102416
0.10098
0.102224
0.100842
0.1016
0.101813
0.101609
0.101807
0.102011
0.102693
0.103012
0.103096
0.102795
0.103467
0.109281
0.10513
0.118755
0.112475
0.123763
0.137576
0.132728
0.148743
0.186435
0.234766
0.168131
0.200673
0.292222
0.634956
3.16038
2.39182
3.23266
1.46507
3.14137
5.22133
6.02702
9.54497
9.41765
8.34093
9.47965
8.53004
9.66714
8.84809
0.118538
0.195592
4.60841
1.7176
2.76457
0.285249
0.752098
6.18855
6.87951
5.79505
5.20491
6.58345
6.13345
6.6271
4.77332
4.68334
4.68902
5.27875
5.1885
4.42671
4.6645
4.68007
4.42979
4.85233
4.99542
4.53551
4.47191
4.07626
4.0188
3.53982
3.60945
3.83245
2.86455
2.87752
2.57344
2.58365
3.31441
4.85837
4.73311
3.61395
4.18002
4.02276
0.105152
0.0928628
0.0964929
0.0817869
0.082703
0.0843188
0.0865963
0.0892398
0.0826015
0.0829235
0.0837862
0.0838489
0.0852608
0.0851771
0.0966907
0.0972924
0.0948328
0.095654
0.0928281
0.093845
0.0907286
0.0920256
0.0870411
0.0866911
0.0887902
0.0901217
0.0883468
0.102436
0.101959
0.10172
0.102488
0.102298
0.100005
0.100502
0.100096
0.10115
0.0982451
0.0987093
0.0964144
0.0969364
0.102126
0.102778
0.102457
0.104147
0.103579
0.103978
0.104323
0.103832
0.104639
0.10574
0.104368
0.104616
0.104146
0.112446
0.107892
0.108363
0.126968
0.117301
0.133922
0.156734
0.151226
0.177418
0.208738
0.422078
0.204744
0.275133
0.614986
1.98589
6.16434
6.89953
6.06442
7.31101
3.95848
6.80001
8.47598
9.4229
10.4176
10.1899
10.2432
0.116108
0.145997
0.200806
2.92348
4.90774
1.11621
2.17688
0.44471
5.46921
6.4079
5.35446
4.77204
5.8837
5.50214
6.33771
6.47715
6.05851
5.81053
4.21265
4.36551
4.39343
4.28833
3.94381
4.01383
3.92849
3.81745
3.96297
3.98702
3.62791
3.60151
3.11156
3.19174
2.53066
2.64744
2.09499
2.14645
1.90782
1.82294
3.29194
1.83747
2.80778
4.94082
0.0956951
0.101463
0.0893406
0.0931101
0.0838993
0.0852539
0.087191
0.0845421
0.0849126
0.0854588
0.0855409
0.0866524
0.0866525
0.0947542
0.0953831
0.0931138
0.0938998
0.0913908
0.0922768
0.0897604
0.0908069
0.0882042
0.089301
0.0879218
0.10093
0.100875
0.100873
0.100672
0.0982254
0.099055
0.0987759
0.100148
0.0965681
0.0972836
0.0949501
0.095669
0.102735
0.102123
0.104913
0.103949
0.109266
0.107569
0.110328
0.109464
0.106663
0.107689
0.110607
0.108406
0.106326
0.112142
0.107604
0.107722
0.121207
0.120614
0.139314
0.137178
0.174933
0.171508
0.23282
0.197758
0.317564
0.726799
0.261648
0.399947
1.72486
4.21808
6.44935
9.49358
9.57167
9.58476
9.77041
10.7121
10.6705
10.9661
0.70991
0.105804
0.110229
0.137595
0.180592
0.331939
3.99345
1.61561
2.42633
5.61024
4.40936
4.3739
4.83354
5.62521
6.0433
4.82457
5.30257
6.14279
6.08715
5.613
5.18767
3.78877
3.97596
3.62138
3.63962
3.52902
3.54846
3.41326
2.95364
3.22989
3.19766
2.44864
2.63795
1.98454
2.15577
1.63659
1.75711
1.49815
1.47357
0.093928
0.0973958
0.0864648
0.0881791
0.0909691
0.0863
0.0877651
0.0870141
0.0874329
0.0878744
0.0879426
0.093334
0.0942506
0.0916772
0.0929246
0.0903374
0.0914923
0.0890374
0.0902302
0.0890406
0.101338
0.0999625
0.100114
0.100505
0.0973035
0.0981382
0.0998359
0.098254
0.0957118
0.0966616
0.0943773
0.0951851
0.105275
0.104024
0.104053
0.107985
0.106118
0.114915
0.114257
0.113486
0.115835
0.122429
0.119667
0.120154
0.117323
0.116246
0.112351
0.110088
0.120131
0.116744
0.123324
0.147053
0.136977
0.216433
0.217005
0.170612
0.202806
0.311488
0.314185
1.00262
2.03297
0.892596
3.80987
5.78007
7.69366
10.4311
11.8008
11.5351
11.4783
1.49631
2.00913
0.0999576
0.539326
1.0273
0.107686
0.112736
0.12061
0.154241
0.195794
0.31611
3.90107
3.15449
5.579
5.13494
3.9108
4.27559
5.87292
5.9745
4.28942
4.80378
5.75769
5.58937
4.93947
3.37366
3.55624
2.9552
3.10185
3.11387
2.9644
2.52391
2.65801
2.09081
2.27476
1.75617
1.89739
1.43175
1.60797
0.0965959
0.0890806
0.0922442
0.0943682
0.0947027
0.0884546
0.0900431
0.0886777
0.0895387
0.0893463
0.0896051
0.0927244
0.0938908
0.0916056
0.0925775
0.0904045
0.0914575
0.0903344
0.0943907
0.100275
0.100002
0.101444
0.0992536
0.0981084
0.097025
0.1017
0.0971245
0.0962065
0.0961251
0.105105
0.103394
0.106926
0.109549
0.109694
0.114797
0.113567
0.123171
0.125328
0.128372
0.127289
0.140656
0.137706