/*--------------------------------*- C++ -*----------------------------------*\
  =========                 |
  \\      /  F ield         | OpenFOAM: The Open Source CFD Toolbox
   \\    /   O peration     | Website:  https://openfoam.org
    \\  /    A nd           | Version:  8
     \\/     M anipulation  |
\*---------------------------------------------------------------------------*/
FoamFile
{
    version     2.0;
    format      ascii;
    class       volVectorField;
    location    "1000";
    object      U;
}
// * * * * * * * * * * * * * * * * * * * * * * * * * * * * * * * * * * * * * //

dimensions      [0 1 -1 0 0 0 0];

internalField   nonuniform List<vector> 
4109
(
(10.1197 0.000524233 0)
(10.1223 0.000554437 3.87639e-21)
(10.124 0.00250718 0)
(10.1218 -0.000216503 -8.35174e-21)
(10.1242 0.00150914 4.01627e-22)
(10.1269 0.00237458 6.68482e-23)
(10.1278 0.00251665 -2.46676e-22)
(10.1334 0.00402004 0)
(10.1288 0.0023939 0)
(10.123 0.000387673 -2.87517e-21)
(10.125 0.00129592 3.49601e-21)
(10.1338 0.00315009 1.53889e-21)
(10.1364 0.00798178 2.24803e-21)
(10.1368 0.00429935 -1.11385e-22)
(10.1346 0.00331776 2.37806e-21)
(10.13 0.00222742 -8.97165e-22)
(10.1243 0.000617117 5.53293e-22)
(10.1267 0.00160849 6.48669e-23)
(10.1356 0.00324071 0)
(10.1404 0.00370187 -3.23721e-21)
(10.159 0.00816949 1.84869e-21)
(10.1427 0.0084291 -5.07674e-21)
(10.1466 0.00601639 -5.76034e-22)
(10.1312 0.00229727 -2.24664e-21)
(10.1285 0.0017606 9.16215e-21)
(10.1256 0.00084322 3.10055e-21)
(10.1329 -0.00211474 0)
(10.1362 -0.00227746 8.96966e-22)
(10.1404 -0.00216501 -6.49898e-23)
(10.136 0.00326605 0)
(10.1419 0.00324126 0)
(10.1465 0.00465162 3.92589e-21)
(10.2209 -1.46682e-05 -1.01487e-21)
(10.1507 0.00705734 -7.10477e-21)
(10.1489 0.00602712 0)
(10.132 0.00234459 -1.61811e-22)
(10.1279 0.00154351 -9.10248e-21)
(10.1266 0.000753448 -5.05159e-21)
(10.1328 -0.00216527 -1.43329e-21)
(10.1249 -0.00161309 0)
(10.1421 -0.00303145 -1.3407e-22)
(10.1392 -0.00332729 4.89817e-22)
(10.1418 -0.00892374 -1.50374e-22)
(10.1365 0.00334995 -2.27547e-21)
(10.1421 0.00324167 0)
(9.48074 0.0260983 7.08108e-22)
(10.135 -0.00036715 3.8062e-22)
(10.1489 0.00467301 -1.41276e-22)
(10.1496 0.00403904 6.77143e-22)
(10.2167 -0.00104812 4.62771e-21)
(10.1535 0.0053462 4.26017e-21)
(10.1308 0.00203289 -1.3361e-22)
(10.1292 0.00185363 -8.84485e-21)
(10.1281 0.00102604 1.98706e-21)
(10.1329 -0.0024985 -9.38156e-22)
(10.1266 -0.00185975 0)
(10.119 -0.000356108 0)
(10.1416 -0.00526689 1.23995e-22)
(10.143 -0.00416481 1.53808e-22)
(10.1389 -0.00347032 0)
(10.2401 -0.00275819 -1.44531e-22)
(8.88598 0.0142881 0)
(10.1362 0.00331269 -7.77202e-21)
(10.1427 0.0032441 0)
(10.1487 0.00440325 6.07619e-22)
(10.2461 -0.000856592 -3.86419e-22)
(9.74637 0.0281028 1.58282e-20)
(10.15 0.00376305 0)
(10.1508 0.00632549 -9.57853e-22)
(10.2301 -0.000410993 -5.83738e-22)
(10.1298 0.00127289 2.66394e-21)
(10.1309 0.00227148 5.90071e-21)
(10.1355 0.0038847 0)
(10.1319 0.001413 1.20406e-20)
(10.1331 0.0022677 -1.79739e-20)
(10.1339 -0.00284288 9.46201e-22)
(10.1284 -0.0019507 0)
(10.1266 -0.00176019 0)
(10.1205 -0.000466344 0)
(10.2207 0.0067683 1.69592e-22)
(10.1468 -0.00463736 7.99882e-22)
(10.1416 -0.00485392 -7.34532e-22)
(10.1451 -0.00360139 8.75313e-23)
(10.1395 -0.00389141 0)
(10.3543 0.0186203 1.2101e-21)
(10.258 1.35331e-05 0)
(9.37365 -0.0429293 0)
(9.21595 0.0310658 -3.08733e-20)
(8.84226 0.0202506 -1.05174e-21)
(10.1348 0.00273643 3.03971e-21)
(10.1371 0.00329996 7.77518e-21)
(10.1432 0.00334104 0)
(10.1492 0.00450297 -3.18753e-22)
(10.1506 0.00351902 -1.98802e-22)
(10.2875 -0.00495144 0)
(9.99272 0.012286 0)
(10.1483 0.00595222 0)
(10.2206 0.00055433 3.09588e-22)
(10.1372 0.00394745 6.34397e-22)
(10.1343 0.00322463 -1.18724e-20)
(10.1318 0.00249203 1.35195e-20)
(10.1366 0.00384732 8.54088e-21)
(10.1383 0.00452295 5.44059e-21)
(10.1347 0.00274228 6.33428e-21)
(10.1342 0.00122939 2.4707e-21)
(10.1347 -0.00332804 3.95442e-22)
(10.1305 -0.00263111 3.499e-22)
(10.1263 -0.00154049 0)
(10.1212 -0.000624363 2.82549e-21)
(10.2091 0.00183162 1.55513e-22)
(10.3295 0.00917242 0)
(10.1451 -0.00536106 -3.19866e-22)
(10.1455 -0.00427868 -3.13344e-23)
(10.1454 -0.00402488 0)
(10.1399 -0.00420325 0)
(9.01875 -0.0380114 -1.43721e-20)
(10.1706 -0.0132035 -1.07984e-21)
(9.90987 -0.0362004 1.72611e-20)
(9.56751 0.0395212 -7.21328e-21)
(9.04843 0.0114496 1.10075e-20)
(8.75678 -0.00318571 8.62146e-21)
(10.2989 0.00207009 1.3786e-22)
(10.1362 0.00331226 -1.38982e-20)
(10.1394 0.00391955 -2.40197e-21)
(10.1441 0.00368706 -7.6773e-22)
(10.1495 0.00479671 0)
(10.1514 0.00387795 6.33276e-22)
(10.1472 0.00612038 -2.02026e-21)
(10.0767 0.00441116 3.38539e-21)
(10.3091 -0.00161189 0)
(10.2078 0.000918058 2.35555e-22)
(10.1404 0.00522275 7.03616e-21)
(10.1373 0.00406427 -4.41933e-21)
(10.1387 0.00472767 -8.35363e-21)
(10.1409 0.00583277 5.1754e-22)
(10.1372 0.00155665 0)
(10.1375 0.00379991 -5.0222e-21)
(10.1355 -0.00386079 -7.73399e-22)
(10.1307 -0.00281264 0)
(10.1268 -0.00171216 1.06663e-21)
(10.1224 -0.00075868 -2.8252e-21)
(10.2107 -0.00125658 -2.38226e-23)
(10.3261 -0.00305247 0)
(10.1429 -0.0066243 0)
(10.1466 -0.00443217 -3.01133e-22)
(10.1457 -0.0042027 1.50152e-22)
(10.1404 -0.00469334 0)
(9.13903 -0.0346226 -8.23179e-21)
(9.85908 -0.0391129 5.31782e-22)
(9.08637 0.0095934 0)
(9.64726 0.0186292 -3.79507e-21)
(8.76041 0.0225417 0)
(10.2683 -0.00129086 -1.28723e-22)
(10.1399 0.00439087 1.10815e-20)
(10.1395 0.00391997 2.40178e-21)
(10.145 0.00418442 7.29954e-22)
(10.1502 0.00562588 2.36557e-21)
(10.1514 0.0044147 1.11044e-21)
(10.1468 0.00697148 1.23827e-21)
(10.2021 0.00308903 -3.931e-23)
(10.1214 0.00212775 -3.47231e-24)
(10.3213 -0.00264535 -2.35374e-22)
(10.1441 0.00620384 1.97744e-21)
(10.1402 0.00452657 0)
(10.1416 0.00627503 -3.21327e-22)
(10.1449 0.00726926 -1.70623e-21)
(10.1427 0.00640051 -2.1249e-22)
(10.141 0.00538773 0)
(10.1408 0.00178254 0)
(10.1365 -0.0045699 2.97033e-22)
(10.132 -0.00341341 1.15559e-22)
(10.1281 -0.00208706 -2.30261e-21)
(10.1232 -0.000649304 -4.76819e-22)
(10.2068 -0.00457524 -1.98049e-23)
(10.3266 -0.00412951 0)
(10.1409 -0.00766834 6.16489e-22)
(10.1483 -0.00454955 -1.47271e-22)
(10.1457 -0.00488676 -5.94938e-22)
(10.1413 -0.00561031 -3.63986e-22)
(9.77439 -0.0296352 -5.55062e-22)
(8.88281 -0.0128299 0)
(9.7055 0.0164748 4.06763e-24)
(9.0961 0.0060175 4.70745e-22)
(8.7618 0.0207209 1.06768e-22)
(10.286 0.00326052 1.77239e-22)
(10.1456 0.0044416 -2.54718e-23)
(10.1462 0.00485977 2.54634e-23)
(10.1519 0.00622066 -1.22689e-21)
(10.1479 0.00758776 -1.99688e-21)
(10.1549 0.00410883 -8.85399e-22)
(10.1906 0.00624309 1.06353e-21)
(10.1074 0.00498993 -2.27104e-22)
(10.3172 0.000780767 1.36657e-22)
(10.1469 0.00536105 -9.53651e-22)
(10.1477 0.00636526 4.98993e-22)
(10.146 0.00829822 -5.00886e-22)
(10.1487 0.0075483 -6.87467e-22)
(10.1477 0.00932733 4.96882e-22)
(10.1461 0.00770675 2.488e-22)
(10.1421 0.00501464 1.87739e-21)
(10.1449 0.000844221 0)
(10.1378 -0.00529158 -6.33251e-22)
(10.1332 -0.00388081 3.07025e-22)
(10.1295 -0.00251147 1.97533e-21)
(10.1248 -0.000893521 3.733e-22)
(10.1929 -0.00628051 -3.46559e-22)
(10.3171 -0.00337506 -5.8771e-22)
(10.1398 -0.00785668 3.89288e-22)
(10.1495 -0.00533512 2.18292e-23)
(10.1463 -0.00649634 8.69571e-22)
(10.1428 -0.00686396 0)
(9.7613 -0.0191538 -1.31096e-21)
(8.86914 -0.00636995 6.33617e-22)
(9.07551 -0.00155705 0)
(9.68095 0.0117894 5.66151e-23)
(8.75445 0.0197215 -7.37038e-22)
(10.313 0.0116695 1.94932e-22)
(10.1528 0.00532774 0)
(10.1531 0.00566998 -9.37124e-22)
(10.1566 0.0042084 -3.04967e-21)
(10.1737 0.0130565 2.21628e-21)
(10.1067 0.00388857 1.57809e-24)
(10.3164 0.0024981 -4.71335e-22)
(10.1533 0.00704675 1.12028e-21)
(10.1536 0.00847892 2.09336e-21)
(10.1501 0.00887683 2.05824e-21)
(10.1543 0.0102003 -1.42918e-21)
(10.152 0.0101454 -1.04821e-21)
(10.1498 0.0104242 0)
(10.1473 0.00744068 -2.11394e-21)
(10.146 0.00574254 -2.15713e-21)
(10.1494 0.000836486 0)
(10.1392 -0.005918 -2.90653e-21)
(10.1345 -0.00422906 7.6106e-21)
(10.1312 -0.00287891 3.37996e-21)
(10.1263 -0.000970306 -6.37218e-22)
(10.1769 -0.00776098 -2.5148e-22)
(10.3019 -0.00404597 1.59623e-22)
(10.1509 -0.00736121 -7.54478e-22)
(10.1405 -0.00800263 1.02447e-21)
(10.1407 -0.00630851 0)
(10.1483 -0.00888148 0)
(10.1446 -0.0078823 0)
(9.82311 -0.0166322 2.88677e-22)
(8.87943 -0.00896548 4.83169e-22)
(9.68285 0.0052059 5.30306e-23)
(9.07975 -0.00894153 6.58194e-23)
(8.76072 0.0212522 -6.45668e-23)
(10.3286 0.0174211 -4.86319e-22)
(10.1584 0.00308316 0)
(10.1566 0.0047379 4.96783e-22)
(10.1652 0.0165055 7.4538e-22)
(10.1063 0.00382083 -1.11438e-21)
(10.3181 0.00806076 5.79238e-22)
(10.1571 0.00685652 -3.40087e-22)
(10.1585 0.00753712 -2.72585e-22)
(10.1553 0.0119691 -4.01583e-22)
(10.1598 0.0100996 0)
(10.1567 0.0139851 0)
(10.1542 0.0113758 -3.23193e-22)
(10.1523 0.0113635 2.73197e-21)
(10.1505 0.00816511 -1.12772e-20)
(10.1503 0.00586113 0)
(10.1538 0.000958131 0)
(10.1372 -0.00502912 4.09898e-21)
(10.1343 -0.00404946 -5.5618e-21)
(10.1283 -0.0011111 2.36872e-21)
(10.1395 -0.00566711 4.10257e-21)
(10.1526 -0.0104297 1.87029e-21)
(10.279 -0.0050314 -3.31459e-21)
(10.1513 -0.00928938 -7.23253e-23)
(10.1429 -0.00689669 0)
(10.1463 -0.00853889 0)
(10.1507 -0.0100352 -5.74781e-22)
(8.88509 -0.00586694 2.9379e-22)
(9.86047 -0.014235 5.12448e-22)
(9.08964 -0.024912 8.07518e-22)
(9.68729 -0.00845328 -7.787e-22)
(8.76629 0.0185276 0)
(10.3381 0.0272668 1.05457e-21)
(10.0158 -0.0174839 1.28207e-19)
(10.1675 0.015863 0)
(10.1636 0.00997217 -2.37211e-22)
(10.1129 0.00561021 -1.49807e-20)
(10.3296 0.00658592 -4.26199e-21)
(10.1529 0.0130106 1.47701e-21)
(10.1558 0.0114623 -4.63533e-22)
(10.1612 0.0120497 2.90784e-21)
(10.154 0.0166784 4.6021e-22)
(10.1632 0.0145047 -8.09143e-23)
(10.1585 0.0158271 -1.12317e-22)
(10.1568 0.0125597 0)
(10.1552 0.0122778 -6.1122e-21)
(10.1543 0.00894786 2.27981e-20)
(10.1549 0.00632585 0)
(10.1556 0.00430223 7.05761e-21)
(10.1572 -0.00064735 0)
(10.129 -0.000618734 0)
(10.135 -0.00351878 2.40107e-21)
(10.1319 -0.00246722 -3.65358e-21)
(10.1405 -0.00555691 2.06554e-22)
(10.1444 -0.00710921 1.59819e-21)
(10.1387 -0.0145116 0)
(10.2596 -0.00886824 1.43927e-21)
(10.1558 -0.0112527 1.25258e-21)
(10.148 -0.00901251 6.01635e-22)
(10.1531 -0.0103936 0)
(9.88878 -0.0061844 1.22131e-21)
(8.86759 -0.000117931 -6.92945e-22)
(9.10584 -0.0297992 4.08753e-20)
(9.74106 -0.0149923 -2.8212e-20)
(8.78122 0.0160326 3.20809e-20)
(10.3336 0.0299939 -1.02913e-21)
(10.0116 -0.00270797 -2.12294e-19)
(10.0142 -0.0198765 5.54191e-20)
(10.0108 -0.0138459 -6.23106e-20)
(10.022 -0.0211862 -8.25146e-20)
(10.0172 -0.00651526 1.88209e-19)
(10.028 -0.0266706 7.31144e-20)
(9.97294 0.0171525 2.77596e-20)
(10.3405 -0.0152604 1.95462e-20)
(10.2799 -0.0294691 -1.85211e-20)
(10.1918 -0.000114918 -1.50714e-21)
(10.2033 0.00181279 -5.93783e-21)
(10.158 0.0114329 -2.92844e-22)
(10.1574 0.0177929 0)
(10.1617 0.020936 -1.70172e-21)
(10.1652 0.0160277 0)
(10.161 0.0176563 0)
(10.1612 0.00788901 4.40211e-20)
(10.1599 0.0137781 1.11485e-21)
(10.1588 0.0130655 1.90484e-20)
(10.1589 0.00966408 -1.91847e-20)
(10.1589 0.00368809 -6.82844e-21)
(10.1583 -0.0014142 0)
(10.1604 0.000790574 0)
(10.1565 -0.00255128 1.27334e-20)
(10.1319 -0.0016833 -5.3586e-22)
(10.1355 -0.00321101 -7.51992e-21)
(10.1426 -0.0059527 -4.80895e-21)
(10.1462 -0.00745551 -5.17598e-21)
(10.1497 -0.00935546 -7.53514e-22)
(10.1389 -0.0197948 0)
(10.2597 -0.0109542 -2.95731e-21)
(10.1589 -0.012221 -1.12739e-21)
(10.1552 -0.0102462 -1.64733e-23)
(9.89172 0.000611797 7.65834e-21)
(8.76561 0.00650971 5.71544e-22)
(8.97734 0.0202593 2.6027e-20)
(10.3267 0.0113443 9.25781e-22)
(10.0008 -0.0019763 -5.61889e-20)
(10.0042 -0.00162415 5.60723e-20)
(10.007 -0.00904336 0)
(10.0193 -0.0246199 -2.26901e-20)
(10.0113 -0.0246269 8.53754e-20)
(10.0069 -0.0176252 7.21181e-20)
(10.1498 -0.0052853 0)
(10.1551 -0.0109791 7.11981e-21)
(10.1567 -0.0250557 5.73278e-21)
(10.0258 -0.00783254 -2.88628e-21)
(10.0314 -0.0193432 -1.90212e-20)
(10.0242 -0.0120514 4.78663e-20)
(10.0341 -0.0269425 -6.51052e-21)
(10.0258 -0.030448 2.7669e-20)
(9.5177 0.0553434 -6.0765e-20)
(10.3523 -0.0333528 -4.39772e-21)
(10.3281 0.00760177 2.70597e-20)
(10.273 -0.00105493 -9.82843e-21)
(10.1691 0.0134166 -1.72562e-22)
(10.1652 0.00724677 1.74819e-21)
(10.1565 0.0225325 -1.33202e-20)
(10.1694 0.0209693 0)
(10.1676 0.0183122 0)
(10.164 0.0197385 -1.10117e-21)
(10.1639 0.0102041 0)
(10.1635 0.0149985 0)
(10.1629 0.0135882 -6.51017e-21)
(10.1657 0.0020238 0)
(10.1645 0.0046142 -3.19093e-20)
(10.1608 -0.00498697 -7.69133e-20)
(10.1647 -0.00158595 5.20076e-20)
(10.1657 -0.0165255 0)
(10.1735 -0.0339463 1.61287e-20)
(10.1346 -0.00158285 7.96335e-21)
(10.1383 -0.0039349 -4.09002e-22)
(10.1454 -0.00665278 -2.00012e-20)
(10.148 -0.00788921 1.12984e-20)
(10.1514 -0.00974214 2.13044e-22)
(10.1569 -0.0104435 -1.6321e-22)
(10.1441 -0.0206471 8.4508e-22)
(10.2491 -0.0144517 1.06077e-21)
(10.1609 -0.0117172 -4.7366e-22)
(9.9329 -0.0196996 -1.1825e-20)
(8.57838 0.00820306 1.82483e-20)
(10.0004 -0.00286524 -1.16444e-19)
(10.003 -0.00951519 4.94073e-20)
(10.0163 -0.0308108 -2.80321e-20)
(10.0093 -0.0286156 1.95709e-21)
(10.0052 -0.0203412 -1.37683e-19)
(10.1443 -0.0173724 -1.2933e-20)
(10.1378 -0.00783694 1.10797e-20)
(10.1448 -0.0341345 0)
(10.1839 -0.0562244 -3.06188e-20)
(10.1624 -0.0451582 -1.6818e-20)
(10.0401 -0.0164011 1.67932e-22)
(10.0392 -0.0109812 -2.6946e-20)
(10.0414 -0.0308654 -1.91601e-22)
(10.0335 -0.0353865 -6.28838e-21)
(10.0237 -0.037673 -2.91153e-20)
(8.65196 0.0442891 -4.4862e-20)
(9.83379 0.103529 1.297e-20)
(10.3641 0.0416143 -1.30688e-20)
(10.3117 0.0226779 1.0431e-21)
(10.1779 0.0168194 4.74526e-21)
(10.1679 0.0100069 2.83486e-21)
(10.1714 0.00907124 9.34394e-21)
(10.1591 0.0225969 -2.55978e-21)
(10.17 0.0231654 2.8229e-21)
(10.1703 0.0206169 0)
(10.1676 0.022332 -9.1003e-21)
(10.1674 0.0134744 -1.04477e-20)
(10.1678 0.0161209 0)
(10.1736 0.00194299 -2.25488e-20)
(10.1722 0.00572961 -1.12623e-20)
(10.1733 -0.00330006 4.96727e-20)
(10.1709 -0.00945937 -1.85339e-20)
(10.1811 -0.0231476 -1.13889e-20)
(10.1951 -0.041152 4.78647e-20)
(10.1378 -0.00203549 -4.80745e-21)
(10.1416 -0.00475208 8.92325e-21)
(10.1632 -0.0128256 2.23241e-21)
(10.1506 -0.0086484 6.59409e-21)
(10.1495 -0.00850775 0)
(10.153 -0.0103054 1.78266e-21)
(10.1584 -0.0107081 9.94257e-23)
(10.1539 -0.0103398 0)
(10.1536 -0.0178196 -1.83359e-21)
(10.1495 -0.0180191 -1.55599e-21)
(10.2878 -0.00592466 1.35504e-21)
(10.0371 -0.0552172 3.23944e-20)
(10.0008 0.00226643 -1.47037e-20)
(10.0003 -0.00386095 0)
(10.0021 -0.0120458 3.14055e-20)
(10.0143 -0.0363961 -6.99863e-21)
(10.0068 -0.0331687 0)
(10.0036 -0.0233766 1.04669e-20)
(10.2207 -0.0690899 -5.4388e-20)
(10.1206 -0.010523 5.39442e-23)
(10.1008 -0.0129397 0)
(10.1302 -0.0240825 -5.98846e-21)
(10.1345 -0.0432591 -1.15223e-21)
(10.0575 -0.010083 0)
(10.0784 -0.00945775 0)
(10.1675 -0.0701209 1.45809e-20)
(10.148 -0.0551943 -2.93031e-22)
(10.051 -0.0260754 1.03781e-19)
(10.0433 -0.0388996 4.96577e-20)
(10.0332 -0.0448643 1.26971e-20)
(10.0211 -0.0446422 0)
(8.45732 -0.00195964 3.56766e-20)
(9.41747 0.108958 0)
(10.2836 0.0579931 1.03821e-21)
(10.3183 0.0251916 -1.20785e-21)
(10.1959 0.0181069 6.33599e-21)
(10.1722 0.0124983 1.20611e-20)
(10.177 0.0102276 0)
(10.1604 0.0241016 3.90588e-21)
(10.1718 0.0254217 -8.25915e-22)
(10.1732 0.0234591 -3.56407e-21)
(10.1721 0.0251137 -1.69253e-21)
(10.1729 0.0168224 2.04108e-22)
(10.1839 0.00152989 -1.30351e-20)
(10.1807 0.00643153 1.46212e-20)
(10.1855 -0.00516312 1.35469e-20)
(10.1849 -0.0134604 -1.22844e-20)
(10.201 -0.0269565 -4.79245e-20)
(10.228 -0.0455808 3.40848e-24)
(10.1416 -0.00257645 -2.67146e-21)
(10.151 -0.00717383 -2.94536e-20)
(10.1463 -0.00598807 1.84869e-20)
(10.1726 -0.0182972 -2.10605e-21)
(10.1648 -0.0129056 -6.38421e-22)
(10.1547 -0.0110912 -1.69123e-21)
(10.1565 -0.0118347 0)
(10.1597 -0.0112397 1.30388e-21)
(10.1569 -0.012024 8.49098e-21)
(10.1589 -0.0128619 0)
(9.66486 -0.087801 -8.2133e-20)
(9.38427 -0.0905868 1.473e-20)
(10.1402 -0.00816745 0)
(10.3265 0.00276905 5.35944e-21)
(10.0004 0.00279356 1.43917e-19)
(10.0022 0.00844522 -1.37239e-19)
(10.0046 0.00103771 0)
(10.0003 -0.00457055 -1.95996e-20)
(10.0014 -0.0137973 7.17964e-20)
(10.0115 -0.0425343 5.91693e-21)
(10.0038 -0.0352196 0)
(10.0013 -0.0245379 -1.65422e-19)
(10.2051 -0.0912942 5.4362e-20)
(10.2663 -0.0674008 2.28038e-20)
(10.1189 -0.0326518 -2.71618e-21)
(10.1015 -0.0267133 0)
(10.1186 -0.0514655 4.49092e-21)
(10.082 -0.0232789 0)
(10.065 -0.0273004 -8.67262e-20)
(10.147 -0.0803467 1.58592e-20)
(10.1315 -0.0602034 4.18598e-21)
(10.0554 -0.0402259 -2.00269e-20)
(10.0446 -0.0518567 -1.16822e-20)
(10.0301 -0.0533 4.03057e-20)
(10.0165 -0.0520265 -3.82588e-20)
(8.16079 -0.0231639 5.05895e-21)
(9.11405 0.0769328 3.32049e-21)
(9.05077 -0.0677665 6.78094e-21)
(10.2357 0.0382702 -2.332e-21)
(10.3409 0.0272961 2.15713e-21)
(10.2081 0.0225583 -2.42017e-21)
(10.1787 0.016483 0)
(10.1848 0.0145554 -1.9515e-20)
(10.1621 0.027333 -4.61853e-21)
(10.1736 0.0282451 7.70735e-21)
(10.1779 0.0266322 1.51672e-21)
(10.1772 0.0273313 1.11718e-20)
(10.1908 0.0105974 1.95085e-20)
(10.1962 0.00463707 0)
(10.2005 -0.00371301 0)
(10.2024 -0.0143314 0)
(10.2291 -0.0241494 0)
(10.2668 -0.0398319 -4.70869e-20)
(10.3057 -0.0633908 -7.36508e-20)
(10.1458 -0.00304333 2.67133e-21)
(10.1519 -0.00552298 8.23529e-21)
(10.1666 -0.0137509 2.30884e-21)
(10.1658 -0.0139374 1.75398e-22)
(10.1611 -0.0122732 -1.56627e-21)
(10.1627 -0.0135251 -1.82598e-21)
(10.165 -0.0149105 0)
(10.1587 -0.0117223 0)
(10.1617 -0.0138054 0)
(10.1705 -0.00446783 0)
(10.3662 -0.0137472 3.99188e-20)
(10.2982 -0.0295131 -3.0268e-20)
(10.0006 0.00484183 3.59101e-20)
(10.0023 0.0108639 -2.80894e-20)
(10.0049 0.0140308 -6.99168e-20)
(10.0137 0.00793747 0)
(10.0073 0.0109467 0)
(9.99993 -0.00490113 5.48457e-21)
(10.001 -0.0154269 4.30299e-20)
(10.0078 -0.045964 -1.27535e-21)
(10.0002 -0.0396328 -2.96304e-20)
(9.99941 -0.0301411 2.68043e-19)
(10.1823 -0.107157 1.50416e-22)
(10.2517 -0.095412 4.59799e-20)
(10.3318 -0.104481 -7.2327e-20)
(10.0714 -0.0447457 -6.48948e-20)
(10.1023 -0.0508244 2.0436e-20)
(10.0892 -0.0406185 2.96595e-20)
(10.125 -0.0862214 0)
(10.1146 -0.0631122 -1.94596e-21)
(10.0586 -0.0588237 -1.60959e-20)
(10.0414 -0.0623329 -4.43476e-20)
(10.0231 -0.0623619 2.24776e-20)
(10.0111 -0.0568735 -1.4209e-20)
(10.3284 -0.0677787 0)
(8.03797 -0.0144628 -4.75523e-21)
(8.96732 0.0593992 2.26199e-21)
(8.85634 -0.0372711 -5.1591e-21)
(10.2085 0.0304489 7.21283e-22)
(10.3522 0.0291109 -7.23772e-22)
(10.2156 0.0308042 0)
(10.1841 0.028474 0)
(10.1922 0.0277715 2.00596e-20)
(10.1773 0.032138 0)
(10.1639 0.0352932 -8.00276e-23)
(10.1836 0.0299105 -1.4725e-21)
(10.201 0.0245109 -2.00479e-20)
(10.2101 0.0182349 0)
(10.2187 0.00815174 0)
(10.2256 -0.00593521 0)
(10.2611 -0.0151245 0)
(10.2944 -0.0339361 3.68158e-20)
(10.3372 -0.0485919 2.15101e-19)
(10.3657 -0.0675906 1.72872e-20)
(10.1492 -0.00212718 0)
(10.1556 -0.00581683 -8.33662e-21)
(10.1675 -0.0131778 0)
(10.1667 -0.0146846 5.88822e-21)
(10.1676 -0.0170098 -1.54117e-20)
(10.168 -0.0192287 4.70966e-21)
(10.1679 -0.0166698 -1.6098e-20)
(10.1626 -0.0123261 2.59349e-21)
(10.1643 -0.0135592 0)
(10.167 -0.0177257 2.37682e-20)
(10.1791 -0.0113269 0)
(10.2687 0.0176658 1.65572e-20)
(10.0006 0.00602313 -6.63666e-20)
(10.024 0.00792269 2.02469e-20)
(10.0034 0.0164444 0)
(10.0063 0.0204351 -1.19887e-21)
(10.0114 0.014734 5.69465e-20)
(9.99982 -0.00455081 0)
(9.99906 -0.0147622 -4.78935e-20)
(10.0024 -0.050189 3.29369e-20)
(9.99526 -0.0388635 0)
(9.99592 -0.0297384 0)
(9.99822 -0.0211594 -1.81797e-21)
(10.1556 -0.117075 -1.86182e-21)
(10.3757 -0.143244 1.01193e-19)
(10.2208 -0.121511 -2.32088e-21)
(10.2941 -0.132133 -7.4313e-20)
(10.105 -0.0876872 5.36451e-20)
(10.0759 -0.0604685 0)
(10.0949 -0.066025 -2.41778e-20)
(10.0558 -0.0714693 0)
(10.0311 -0.0740433 4.97528e-21)
(10.0152 -0.0694442 4.29465e-20)
(10.0038 -0.0620494 -1.7148e-20)
(10.2778 -0.0441471 0)
(7.97166 -0.0142825 2.82223e-21)
(8.87354 0.0583614 -3.67624e-21)
(8.77232 -0.0338059 -7.60581e-22)
(10.1707 0.0248096 9.35072e-22)
(10.3547 0.0321649 1.26035e-21)
(10.2176 0.0455124 6.09852e-22)
(10.2025 0.0342555 2.1882e-20)
(10.1921 0.0326818 -1.0642e-20)
(10.184 0.0375198 1.28375e-21)
(10.1676 0.0486861 -1.38072e-21)
(10.2142 0.0323609 -2.88719e-20)
(10.2268 0.0271624 1.71384e-20)
(10.2517 0.00459501 0)
(10.2397 0.0185348 0)
(10.2846 -0.0071916 -1.31581e-20)
(10.3523 -0.006798 7.82368e-20)
(10.3227 -0.0105139 0)
(10.3868 -0.0273262 -2.17919e-19)
(10.4095 -0.0981516 -1.39788e-19)
(10.1534 -0.00199411 4.57382e-21)
(10.1592 -0.00540089 -2.47592e-21)
(10.1663 -0.0119433 1.78742e-20)
(10.1676 -0.0190227 4.09348e-21)
(10.1708 -0.0178557 1.33821e-20)
(10.1709 -0.0223881 -1.944e-21)
(10.1721 -0.0177075 3.79263e-22)
(10.1683 -0.014364 -2.19853e-21)
(10.1693 -0.0195408 8.63769e-21)
(10.1625 -0.0250329 0)
(10.243 -0.0113518 -2.61492e-22)
(10.0002 0.0057564 -4.06294e-20)
(10.0016 0.0153374 8.29553e-20)
(10.0388 0.00743858 -2.93703e-20)
(10.0282 0.0195776 -5.3483e-20)
(10.0054 0.023243 3.27394e-20)
(10.0107 0.0237568 -2.45641e-20)
(10.0205 0.0216447 5.22401e-20)
(9.99812 -0.0115508 0)
(9.99964 -0.00370472 0)
(9.99563 -0.0495913 -1.67618e-20)
(9.99021 -0.03737 -5.57176e-20)
(9.99263 -0.0285494 1.70703e-20)
(9.99557 -0.0198524 1.8598e-21)
(10.1294 -0.120833 -1.74429e-20)
(10.4297 -0.194478 -1.74375e-19)
(10.1871 -0.141246 -4.67334e-21)
(10.3357 -0.183371 2.66102e-20)
(10.2545 -0.170417 3.0285e-20)
(10.0896 -0.091761 -4.3393e-20)
(10.0717 -0.0773365 -1.3e-20)
(10.106 -0.120126 2.37869e-20)
(10.0438 -0.0869506 -7.2226e-20)
(10.0215 -0.0847357 0)
(10.0055 -0.0762342 -1.33757e-20)
(9.99428 -0.0625248 -3.59409e-21)
(10.3033 -0.0456785 5.32725e-22)
(7.93225 -0.0224404 0)
(8.78239 0.061608 1.11712e-21)
(8.69495 -0.0299485 0)
(10.1348 0.0194288 -1.31168e-21)
(10.3542 0.0365261 -5.83703e-22)
(10.2088 0.0612082 7.82029e-23)
(10.2077 0.0498789 0)
(10.1942 0.043891 9.02834e-22)
(10.1761 0.0610201 1.59346e-20)
(10.2256 0.0439406 0)
(10.24 0.0379994 3.3892e-20)
(10.2713 0.0132959 -4.40383e-21)
(10.256 0.0289581 -3.89966e-20)
(10.3098 0.00226612 -2.54789e-21)
(10.3587 0.0308445 9.68429e-20)
(10.3963 0.00744793 -4.45676e-20)
(10.4345 -0.0478762 1.62705e-19)
(10.4674 -0.138379 4.00239e-20)
(10.157 -0.00187734 0)
(10.1639 -0.00512265 0)
(10.1708 -0.0110326 -2.42709e-20)
(10.1724 -0.0147333 6.47735e-22)
(10.1684 -0.0231195 -9.44257e-21)
(10.1721 -0.020554 0)
(10.1739 -0.0264491 -2.4116e-21)
(10.1746 -0.0191678 -3.81953e-21)
(10.1736 -0.0204024 3.5142e-21)
(10.169 -0.0270825 4.33367e-21)
(10.2607 -0.0136555 1.12763e-22)
(10.0001 0.00433658 3.33709e-20)
(10.0004 0.0131135 8.38168e-20)
(10.0018 0.0206532 -1.22569e-19)
(10.0037 0.0245471 -4.44593e-20)
(10.057 0.00733761 0)
(10.0413 0.0194835 3.42446e-20)
(10.0335 0.0301905 -4.13099e-20)
(10.0089 0.0291007 -1.4338e-20)
(10.0168 0.0302443 0)
(10.0272 0.0311032 -8.7859e-20)
(10.0774 0.00695333 -4.27009e-21)
(9.99704 -0.00805055 5.01431e-20)
(9.99954 -0.00229285 0)
(9.99985 0.00369595 0)
(9.98795 -0.0473292 -2.07328e-20)
(9.98541 -0.0315904 4.3929e-20)
(9.99237 -0.015434 -5.40398e-20)
(9.98821 -0.0235108 0)
(10.1493 -0.155273 8.02865e-24)
(10.3835 -0.243615 1.50394e-20)
(10.2114 -0.194173 5.91309e-21)
(10.2897 -0.220056 3.13166e-22)
(10.0817 -0.11574 3.29385e-20)
(10.0606 -0.0989177 5.96844e-20)
(10.1123 -0.160274 0)
(9.98327 -0.0602474 4.4027e-20)
(10.0332 -0.103695 -7.75507e-22)
(10.0094 -0.0952428 0)
(9.99235 -0.0781889 -1.65512e-20)
(10.2868 -0.0421494 -8.72662e-23)
(7.90011 -0.026632 4.52719e-22)
(8.69869 0.0681027 -6.95142e-22)
(8.64874 -0.0268945 -1.24947e-21)
(10.2082 0.0708701 0)
(10.1219 0.007049 1.14803e-22)
(10.3479 0.0396339 -8.14002e-23)
(10.2063 0.0673021 -2.34844e-20)
(10.1901 0.0704509 3.65541e-21)
(10.2487 0.0628025 -7.70393e-21)
(10.2332 0.0612551 2.86362e-20)
(10.2906 0.0373324 -5.52355e-20)
(10.3239 0.0460251 -1.01174e-19)
(10.2712 0.0407477 7.21331e-20)
(10.3827 0.0483846 0)
(10.4462 0.00866322 9.75417e-20)
(10.4959 -0.0759431 0)
(10.1591 -0.00160718 4.3073e-21)
(10.1713 -0.00412414 4.45329e-20)
(10.1755 -0.00928153 0)
(10.1774 -0.0144114 -3.76498e-22)
(10.1783 -0.0210638 -1.04957e-20)
(10.1698 -0.0294018 0)
(10.1746 -0.0226192 0)
(10.1776 -0.0295842 -3.5342e-22)
(10.1794 -0.0213504 1.01772e-20)
(10.1701 -0.0342261 1.11053e-21)
(10.2637 -0.0191972 -1.05517e-21)
(10.1563 0.000498574 -5.24091e-21)
(10.1517 0.0016078 0)
(9.99937 0.0130705 1.34872e-20)
(9.99925 0.0213919 0)
(10.0029 0.0287733 4.66934e-20)
(10.0068 0.0324857 1.43787e-20)
(10.0576 0.020375 0)
(10.0441 0.0315153 5.74826e-20)
(10.0345 0.0369053 3.7921e-21)
(10.0144 0.0367314 0)
(10.0243 0.0380354 0)
(10.0758 0.0219172 -4.76071e-22)
(10.0983 0.00594266 -4.13026e-21)
(10.1178 0.0034891 0)
(10.1334 0.000149383 4.61259e-20)
(10.1468 0.00504468 -4.57199e-20)
(9.99927 0.000634258 0)
(9.99571 -0.0026421 0)
(9.99966 0.00198794 0)
(9.99823 0.0115162 0)
(9.97161 -0.0514697 -2.15662e-20)
(9.98003 -0.0395398 5.48332e-20)
(9.98185 -0.0249657 0)
(9.98895 -0.00928082 5.35089e-20)
(10.1641 -0.213854 1.99069e-20)
(10.3306 -0.287064 2.33599e-20)
(10.2387 -0.251823 -2.14986e-20)
(10.0514 -0.123403 2.82089e-21)
(10.0774 -0.139366 -6.26999e-22)
(10.0969 -0.191791 1.03996e-20)
(10.1189 -0.229882 -3.59036e-20)
(9.96075 -0.065583 0)
(9.97674 -0.0760381 -2.64415e-21)
(10.0186 -0.118602 0)
(9.99124 -0.0998451 0)
(10.3061 -0.0435539 0)
(8.60761 0.0738055 -1.72846e-22)
(7.85601 -0.0309052 -2.52258e-22)
(8.71526 -0.0394435 -1.01527e-20)
(10.3332 0.0514021 0)
(10.1663 -0.00310814 -4.3231e-21)
(10.2188 0.0957144 -4.00325e-21)
(10.2414 0.072717 -1.42114e-20)
(10.3203 0.0856093 0)
(10.2789 0.0801821 0)
(10.3615 0.0805492 -3.9249e-20)
(10.4432 0.0642756 4.59398e-21)
(10.5128 -0.00722718 2.49179e-20)
(10.1693 0.00086097 -5.32174e-20)
(10.1803 -0.00709327 0)
(10.1829 -0.0128553 1.44189e-20)
(10.1842 -0.0208698 3.77521e-22)
(10.1847 -0.0231063 1.82352e-21)
(10.1725 -0.0367613 -1.15753e-21)
(10.1786 -0.0255515 1.53023e-21)
(10.1826 -0.032481 0)
(10.2663 -0.0251411 2.97956e-22)
(10.1719 -0.0416385 -7.31206e-22)
(10.1568 0.0133387 2.21669e-20)
(10.1669 0.00522229 8.69762e-21)
(10.1612 0.00984194 -2.83038e-21)
(9.99798 0.0212352 1.64317e-20)
(9.99972 0.0292952 -3.19664e-20)
(10.005 0.0372211 -1.61438e-20)
(10.0118 0.0417046 1.36996e-20)
(10.0586 0.033561 0)
(10.0451 0.0409671 2.2192e-20)
(10.0334 0.0450308 -3.58736e-21)
(10.0219 0.0456708 1.12346e-21)
(10.0746 0.0364195 -1.73629e-20)
(10.0962 0.0270877 1.48579e-20)
(10.0917 0.0378176 -7.68013e-21)
(10.1582 0.0227875 1.34672e-20)
(10.1155 0.0254729 -1.24334e-23)
(10.1475 0.023857 -1.16072e-21)
(10.1332 0.023847 3.99749e-21)
(9.99665 0.00850105 0)
(9.99262 0.00360615 0)
(9.99564 0.0196084 6.11121e-20)
(9.9854 0.00243297 -1.07261e-19)
(9.96078 -0.0417316 -5.6795e-20)
(9.97243 -0.0311499 2.55012e-20)
(9.98089 -0.0125428 1.70526e-20)
(9.94678 -0.0509424 0)
(10.1844 -0.276125 0)
(10.2717 -0.324366 1.52402e-20)
(10.0367 -0.155617 -2.34237e-20)
(10.0557 -0.21005 3.13967e-20)
(10.0613 -0.168735 3.06131e-20)
(10.0654 -0.248029 -1.58744e-20)
(10.1286 -0.293441 5.89849e-21)
(9.96897 -0.0962932 -4.4438e-20)
(9.94791 -0.0813682 5.28922e-20)
(9.99178 -0.129629 -3.85468e-20)
(10.3891 -0.0544105 2.71688e-21)
(8.51394 0.103531 8.9724e-21)
(7.78541 -0.032688 -4.76256e-20)
(8.72366 -0.0980842 -5.93241e-21)
(10.3603 0.060917 1.70806e-20)
(10.2567 0.0167735 -1.85884e-20)
(10.2521 0.108517 4.24294e-20)
(10.263 0.0818759 -2.32582e-20)
(10.3417 0.117991 1.85397e-19)
(10.4263 0.118222 3.13483e-19)
(10.5174 0.0633902 -2.36895e-19)
(10.1814 -0.00177268 0)
(10.1886 -0.00960108 -3.02354e-20)
(10.1911 -0.0191321 -1.08814e-22)
(10.1918 -0.02395 -1.18397e-20)
(10.1893 -0.0342379 1.18739e-21)
(10.1781 -0.0446914 3.86984e-22)
(10.1844 -0.0294448 5.85629e-22)
(10.233 -0.0325793 -2.87166e-22)
(10.1693 -0.0499363 0)
(10.1672 0.0145939 0)
(10.1816 0.00470519 0)
(9.99304 0.0283384 1.02014e-19)
(9.99683 0.0297972 -1.68298e-20)
(10.001 0.0385806 4.99106e-20)
(10.0089 0.0477094 0)
(10.0193 0.0526485 -4.36279e-20)
(10.059 0.0454616 -6.50047e-21)
(10.0451 0.0510397 -1.46075e-21)
(10.0316 0.054696 1.48761e-20)
(10.0744 0.0484758 1.10673e-20)
(10.0909 0.0553947 1.73508e-20)
(10.1066 0.0473754 -6.16547e-21)
(10.1684 0.0239621 5.92822e-21)
(10.1639 0.0307867 1.43461e-20)
(10.1218 0.0443143 1.12369e-21)
(10.1538 0.0350592 -2.51411e-21)
(10.1396 0.039977 -1.28585e-20)
(9.99257 0.0164921 5.81631e-20)
(9.98734 0.0117307 7.49538e-20)
(9.98909 0.0248807 -2.21282e-19)
(9.97702 0.000851332 -1.78258e-20)
(9.93091 -0.0667585 1.64532e-20)
(9.95032 -0.0236124 -2.77452e-19)
(9.96443 -0.0122908 8.90227e-20)
(9.93411 -0.0260308 0)
(9.98671 0.0317105 4.49377e-20)
(10.2074 -0.352902 -3.59854e-21)
(9.99988 -0.170986 0)
(10.0114 -0.202531 6.72851e-20)
(10.0204 -0.249329 -3.90378e-20)
(10.0699 -0.303597 0)
(10.1383 -0.371315 -3.59207e-21)
(9.94631 -0.16214 -9.43313e-20)
(9.95317 -0.129239 3.22642e-20)
(9.92724 -0.119696 -1.34235e-19)
(10.4166 -0.0956412 7.47735e-21)
(8.32341 0.223339 3.27828e-21)
(7.78356 -0.042167 2.98738e-19)
(8.31875 -0.228055 -1.70308e-19)
(10.3276 0.14973 -2.00144e-21)
(10.2874 0.143039 -1.61573e-19)
(10.3539 0.148092 8.21703e-20)
(10.3952 0.167439 -1.8551e-19)
(10.5061 0.136327 -7.82418e-21)
(10.1937 -0.00420955 1.59151e-20)
(10.1984 -0.0150416 -3.40656e-23)
(10.2006 -0.0227656 1.69186e-20)
(10.1986 -0.0345461 -1.12475e-21)
(10.1849 -0.0540619 -7.51941e-22)
(10.1927 -0.0333422 1.85724e-21)
(10.2111 -0.0520023 1.62616e-22)
(10.1762 -0.0604937 2.00672e-20)
(10.1818 0.0133012 0)
(10.1974 0.00372307 -1.81566e-20)
(9.99125 0.0370879 -3.72118e-20)
(9.9965 0.0391335 -3.3346e-20)
(10.0037 0.0512548 0)
(10.0162 0.0614306 -2.78315e-20)
(10.0295 0.0631405 1.58954e-20)
(10.0593 0.0565704 6.24913e-21)
(10.0439 0.0635594 0)
(10.0759 0.0615574 -3.12371e-21)
(10.0945 0.0631627 -1.74872e-21)
(10.1133 0.0627342 4.49864e-21)
(10.1812 0.0243665 -1.03482e-20)
(10.1752 0.0349624 0)
(10.1314 0.058921 -5.12132e-22)
(10.1642 0.0447204 -1.05667e-21)
(10.1492 0.0525883 -7.13481e-21)
(9.97908 0.011479 -3.24846e-20)
(9.98208 0.0238841 0)
(9.96 0.000524132 2.0565e-19)