/*--------------------------------*- C++ -*----------------------------------*\
  =========                 |
  \\      /  F ield         | OpenFOAM: The Open Source CFD Toolbox
   \\    /   O peration     | Website:  https://openfoam.org
    \\  /    A nd           | Version:  8
     \\/     M anipulation  |
\*---------------------------------------------------------------------------*/
FoamFile
{
    version     2.0;
    format      ascii;
    class       surfaceScalarField;
    location    "0.079";
    object      phi;
}
// * * * * * * * * * * * * * * * * * * * * * * * * * * * * * * * * * * * * * //

dimensions      [0 3 -1 0 0 0 0];

internalField   nonuniform List<scalar> 
1107
(
0.000315988
-0.000643388
0.000633494
-0.000306094
0.000616968
-0.00030098
-2.96871e-05
0.000646655
0.000304962
0.000538556
-0.000106654
-0.000736865
-0.000968717
0.000630292
-9.76567e-05
0.000701464
0.000286064
-5.36017e-05
-1.49161e-05
-3.72724e-05
0.000683927
-3.30511e-05
1.43467e-05
-8.79495e-05
0.000180751
-0.000148833
-6.49697e-05
0.000300272
-0.000856385
-0.00126768
0.000599238
-0.000207466
0.000740101
0.000760967
-9.67758e-05
4.17076e-05
0.000814912
-9.5652e-05
3.58096e-06
-4.28358e-05
-1.13353e-05
0.000725635
0.000853069
2.99216e-05
-6.80786e-05
6.44731e-05
-0.000126751
-8.65552e-05
2.51489e-05
-4.86252e-05
0.000227394
-0.000140758
-0.000213387
0.000277847
-0.000115422
0.000296552
-0.00087509
-0.00151061
0.000539474
-0.000366498
0.00075827
0.000828766
-0.000185442
0.00089923
-0.000166115
5.2156e-06
-2.29025e-05
-6.11973e-06
-2.2293e-05
0.00086505
1.03117e-05
0.000755557
0.000946175
-0.000115024
0.000963477
-3.9595e-05
0.000951861
-2.38973e-05
3.55129e-05
3.54042e-05
-7.27549e-05
-4.92046e-05
1.3622e-05
-2.6843e-05
-8.23994e-05
-0.000131114
0.000322166
-0.000215173
-0.000320381
0.000397171
-0.000190427
0.000306686
-0.000784606
0.000459871
-0.00166379
-0.000570356
0.000743332
0.000880866
-0.000308037
0.000968445
-0.000253694
2.99796e-06
-1.22785e-05
-3.12177e-06
8.81593e-05
0.000916904
-5.32021e-05
0.000853472
-1.23192e-05
0.000765868
0.00102611
-0.000172693
0.00105048
-6.39647e-05
0.00103965
4.63462e-05
0.000999439
0.000128371
-0.000118508
0.000932831
0.000185116
5.74524e-05
-0.000104205
-3.56469e-05
2.76046e-05
-1.93567e-05
1.0414e-05
-9.65242e-06
-0.000129769
-0.000216517
-6.19163e-05
-0.000172058
0.000691201
-0.000801686
0.000902306
-0.000467012
0.0010109
-0.000362292
2.20818e-06
-4.07267e-06
-9.13589e-07
0.000865655
-6.72594e-05
0.000823941
-2.36708e-05
0.000753549
0.000822861
-0.000147402
0.000257373
0.00107959
-0.000241381
0.0011107
-9.50693e-05
0.00110239
5.46558e-05
0.00105829
0.000172472
0.000974514
0.000268888
4.56508e-05
-3.0606e-05
-7.69612e-05
2.4441e-05
-1.44371e-05
1.14679e-05
-6.38354e-06
4.27929e-06
-2.46385e-06
0.000877238
-0.000653049
0.00100527
-0.000490323
8.82553e-07
-6.75931e-07
-3.10361e-08
0.000334142
0.000670018
-0.0001813
0.00079061
-7.23568e-05
0.000785616
-2.89351e-05
0.000729878
0.000827243
0.000404644
0.000622682
0.000538703
0.000388298
-0.00129507
0.00152945
0.00108447
-0.000320585
0.00112435
-0.000134943
0.00112317
5.58371e-05
0.00107776
0.000217873
0.000975231
0.000371422
-3.58708e-05
-5.57966e-05
6.10615e-05
-1.92677e-05
-3.10402e-05
-9.0921e-06
-1.65591e-05
-3.37981e-06
-8.17615e-06
-6.70578e-07
-3.38516e-06
-7.01614e-07
0.000987999
0.00034541
-0.000945111
0.000371511
-0.000996559
0.00068805
-7.87401e-05
0.000739102
-2.58426e-05
0.000700943
0.000793484
0.00058639
0.000547567
0.000784621
0.000411896
0.00166512
0.000483364
0.000916532
-5.78824e-05
-9.54247e-05
9.75105e-05
-3.1331e-05
-5.75917e-05
-1.47863e-05
-3.31038e-05
-5.47328e-06
-1.74891e-05
-1.09568e-06
-7.76276e-06
-1.7973e-06
0.000101445
0.000300666
-5.67015e-05
0.000227767
-0.000801367
0.000357808
-0.000666317
0.000680878
-2.05162e-05
0.0006751
0.000415909
0.000168901
-4.46244e-05
-0.00012534
7.45396e-05
-2.4527e-05
-7.7689e-05
-1.1801e-05
-4.58298e-05
-4.48908e-06
-2.48011e-05
-9.73165e-07
-1.12787e-05
-2.77046e-06
0.000246471
0.000202975
-0.00014878
0.000201336
-3.02701e-05
0.000136232
-0.00057979
0.000342994
-0.000328433
0.000654584
0.000297743
0.000364637
-1.476e-05
-0.000134215
2.36348e-05
-8.36408e-06
-8.4085e-05
-4.13922e-06
-5.00547e-05
-1.66034e-06
-2.728e-05
-4.05093e-07
-1.25339e-05
-3.17556e-06
0.000150016
0.000136504
-8.35451e-05
0.0001291
-7.65444e-05
0.00012099
-1.50283e-05
7.00078e-05
-0.000306804
0.000326151
0.000201943
0.000245816
1.39937e-05
-0.000122562
-2.56463e-05
7.11092e-06
-7.72022e-05
3.16861e-06
-4.61123e-05
1.1179e-06
-2.52293e-05
1.79591e-07
-1.15956e-05
-2.99596e-06
0.000129937
7.89261e-05
-7.23586e-05
8.59979e-05
-4.04426e-05
7.41998e-05
-2.97544e-05
5.93505e-05
-4.37107e-06
1.93473e-05
0.000120012
0.000211868
-8.92947e-05
6.00103e-05
0.000149297
1.62183e-05
-3.57569e-05
-0.000103023
7.57612e-06
-6.856e-05
3.23855e-06
-4.17748e-05
1.16863e-06
-2.31594e-05
2.25004e-07
-1.0652e-05
-2.77096e-06
3.85147e-05
-4.88833e-05
4.86426e-05
-3.50033e-05
4.90633e-05
-1.53062e-05
3.543e-05
-5.83382e-06
1.49763e-05
-5.23149e-05
2.4012e-05
8.83133e-05
-3.18887e-05
5.77129e-05
-6.7599e-05
-1.25595e-05
-4.24886e-05
-2.81556e-06
-2.03959e-05
-5.58651e-06
1.45226e-05
-2.83227e-05
2.3138e-05
-2.33787e-05
2.72518e-05
-1.31917e-05
2.32049e-05
-3.08104e-06
9.14243e-06
4.93288e-06
-2.58477e-05
4.49268e-05
-2.07548e-06
7.07237e-06
7.25595e-06
-1.22528e-05
-1.29802e-05
5.60432e-05
-6.34589e-05
-1.85667e-05
-1.93281e-06
-8.23121e-06
1.50969e-05
2.33183e-06
-1.3657e-05
8.22032e-06
-1.34051e-05
1.26579e-05
-8.78478e-06
1.2729e-05
-2.71593e-06
6.06139e-06
1.56687e-06
4.38405e-06
-8.0264e-06
-4.98497e-07
3.47055e-06
4.1003e-06
-1.88953e-06
8.48094e-06
-1.68621e-05
1.02707e-05
-3.10681e-06
-3.36082e-07
1.51008e-06
-1.79549e-06
-4.10389e-06
8.96927e-07
-6.3336e-06
4.24584e-06
-4.99305e-06
5.79539e-06
-1.85112e-06
3.34546e-06
3.51149e-06
1.70825e-06
-3.65288e-06
1.67805e-06
2.20749e-06
1.17919e-07
1.4631e-06
-7.53558e-07
3.0487e-06
6.18579e-06
-2.68406e-06
4.81487e-06
-2.38944e-05
2.17636e-05
-2.1772e-06
2.17408e-06
-3.10369e-06
-2.24058e-06
1.09015e-07
-1.41853e-06
-1.78843e-06
2.3616e-07
-2.32391e-06
1.8453e-06
-1.04296e-06
1.49434e-06
3.85008e-06
-3.38479e-07
-1.12592e-10
2.66429e-06
7.22e-07
1.3393e-06
9.86112e-07
2.42359e-07
4.67179e-07
-2.01016e-07
5.65652e-07
-5.83298e-07
5.39815e-06
-1.21563e-06
1.74323e-06
-2.7048e-06
-1.40688e-06
1.34037e-06
-1.48262e-06
1.73105e-07
-9.40879e-07
-6.11395e-07
3.5312e-09
-4.82143e-07
4.51378e-07
2.70915e-06
-2.27807e-06
3.419e-06
2.65902e-06
-3.33223e-07
1.80165e-06
2.59651e-07
8.83665e-07
3.44804e-07
1.82783e-07
8.33785e-08
-1.76469e-08
-1.68894e-06
-9.52852e-07
1.42616e-06
-6.61656e-07
9.97998e-07
-8.42729e-07
7.0048e-07
-8.74098e-07
1.06324e-07
-4.9683e-07
-1.11033e-07
-3.0764e-08
1.50416e-06
-2.03648e-06
3.24147e-06
1.7275e-06
-1.34656e-06
1.68521e-06
-2.16791e-07
1.0758e-06
6.75181e-08
4.62502e-07
6.50846e-08
6.57313e-08
-2.47309e-06
-1.39762e-06
2.18177e-06
-1.04743e-06
-5.67084e-07
-3.37193e-07
4.9246e-07
-4.55468e-07
2.8185e-07
-4.23646e-07
3.31398e-08
-1.41797e-07
2.15748e-06
1.27824e-06
-1.93156e-06
8.36442e-07
-1.14542e-06
1.01798e-06
-6.79325e-07
9.59293e-07
-1.00287e-07
5.24395e-07
5.62485e-09
1.30816e-07
-2.93804e-06
-7.53638e-07
1.21859e-06
-1.63516e-06
-8.09885e-07
-6.10692e-07
-2.93586e-07
-1.5273e-07
1.89722e-07
-2.04099e-07
6.23028e-08
-1.08658e-07
-2.83666e-06
1.91588e-07
-2.92971e-07
1.29712e-06
-1.97631e-06
1.35276e-06
7.61912e-07
4.32217e-07
-5.59657e-07
5.44458e-07
-2.64491e-07
4.50524e-07
-2.64161e-08
1.3644e-07
-1.96097e-06
-4.27833e-07
-1.01442e-06
-4.06154e-07
-3.25788e-07
-1.20529e-07
-5.35885e-08
3.92114e-08
-4.63551e-08
-1.88529e-06
1.15897e-07
7.64584e-07
7.9919e-07
3.94938e-07
1.99157e-07
-2.14357e-07
2.42129e-07
-5.60967e-08
1.10024e-07
-1.22955e-06
-2.12702e-07
-5.7214e-07
-1.59802e-07
-1.46222e-07
-2.7896e-08
-7.14386e-09
-1.175e-06
6.13391e-08
3.88776e-07
4.31944e-07
1.62151e-07
7.16264e-08
-4.38545e-08
5.39275e-08
-7.00364e-07
-8.44784e-08
-2.70194e-07
-3.58299e-08
-3.50399e-08
-6.65611e-07
2.65851e-08
1.5511e-07
1.96115e-07
3.76616e-08
1.00727e-08
-3.34907e-07
-1.97664e-08
-7.08698e-08
-3.15663e-07
7.34066e-09
3.55617e-08
4.77342e-08
-9.06363e-08
-8.32958e-08
0.000597177
-0.00138178
-0.00106661
0.0003234
-0.000539916
0.000860692
-0.000537292
0.000540311
0.00130424
-0.000763926
0.00111381
-0.000267972
0.00157007
-0.00183804
0.000503455
-0.000298231
-0.00139491
0.000630983
0.000139433
-0.000311491
-0.000400483
4.44258e-05
-0.000121387
-0.000267065
0.000331851
-0.000732334
0.00117716
-0.000845312
0.00063987
-0.000755039
0.00207405
-0.00144306
0.000236005
0.00130968
-0.00107367
0.00101145
0.000358398
0.00101926
-0.0017743
-0.000423806
-6.03255e-05
0.000230334
-0.00029066
-3.67308e-05
-0.000769065
-6.73806e-05
-0.000701684
0.00137394
-0.00144133
0.000528633
-0.00124566
0.00142815
-0.00185195
0.000354475
0.000887048
-0.000532573
-0.00124545
0.000755123
-0.00137919
0.00105861
-0.000624067
0.000990097
-0.00223576
-0.000861857
0.000861463
0.000803657
0.00177799
-0.000412948
0.000999338
-0.00149412
0.00135918
-0.000435518
-0.00116236
0.000749415
-0.000790941
-0.0013253
0.00138114
3.38795e-05
-0.00129357
0.000502631
-0.0010757
0.000305439
-0.000193149
0.000132844
-0.000325993
-0.000568841
0.000281257
-0.000850098
-0.00116007
0.000202711
-0.00136278
-0.00203305
0.00114365
-0.00200551
-0.000611078
-1.29891e-05
-0.000667308
0.00023179
-0.000680297
-2.4498e-05
-0.00200855
-0.00203001
-0.000901713
0.00170537
-0.000117092
0.000882246
0.000281903
0.00149609
0.00198727
0.00166499
-2.67572e-05
0.000909003
-0.00101697
0.000990208
-0.000267551
-0.000587099
0.000620979
-0.000355309
-0.000971499
0.000703948
-0.000468868
-0.00079801
0.000329142
-0.00049257
0.000128408
-0.000251453
8.12155e-05
-0.000332669
-0.000768882
3.4979e-05
-0.000803861
-0.0013278
-0.000350885
-0.000976915
-0.00235944
0.000884693
-0.00124
0.000204396
-0.00182561
-0.00142585
0.000185848
0.000920236
-0.00274585
-0.0014392
0.000538736
0.00144854
0.00144774
-0.00100916
0.0013738
0.000655832
0.00210437
9.88083e-05
0.00134893
0.00108902
4.40126e-05
0.001045
0.000747961
0.000217801
0.000530159
0.000546943
0.000675351
-0.000750499
-0.000309034
1.00508e-05
-0.000319085
-0.00079381
-0.000349428
-0.000444383
-0.00132634
-0.000424799
-0.000901544
-0.001864
0.00201388
-0.00182803
-0.000731968
0.00173276
-0.00248326
-9.52662e-05
0.00128856
-0.00202053
-0.000575438
-0.000617167
0.000862983
0.00075663
-0.00121311
0.00196973
0.000891264
0.00224019
0.00140612
0.000834071
0.00245113
0.00298129
-0.000632504
0.00205928
-0.00142677
0.00311577
-0.00013448
-0.000344731
0.000565037
-0.00114048
-9.40153e-05
-0.000250716
-0.000538398
-0.000119138
-0.000419261
-0.00102068
-0.000455645
0.00182445
0.000234824
-0.00172919
-0.000291342
-0.000733404
0.000968227
-0.00097728
-0.000163196
0.000648001
-0.000939343
-0.000329278
-0.00117898
0.000445573
-0.000325364
0.000537232
0.000537619
2.80513e-05
-0.000605827
0.000577776
-0.00115093
-0.000122759
0.00034926
-0.000226501
-0.000728586
-0.00070309
0.00124071
0.00126665
0.00210072
-0.000341417
-0.000809508
-0.00176819
0.001217
0.000883713
0.00108252
-0.000685666
-0.000286473
0.000394871
-0.000558067
-0.000676759
0.000221114
-0.000281888
-0.000125807
-0.000160666
-0.000545068
-0.000323953
-0.00126102
0.000321672
-0.000292788
-0.000608657
0.000315869
-0.000163084
-0.000503032
-5.50346e-05
0.000832311
-0.000510638
-0.000676725
0.000513641
-9.89494e-05
0.000369106
-1.98463e-05
0.000270157
-0.000219637
0.000199791
1.72166e-05
0.000144679
-0.000161896
-0.000202421
-0.000428921
-0.000259298
-0.000169623
-0.000113016
0.000262313
0.000424215
-0.000149294
0.000573509
0.00109141
0.000317379
-0.000576677
-0.000411207
-0.00122072
0.000468756
0.000622659
-0.000666803
-0.000553912
0.00135247
-2.15621e-05
0.000109875
0.000240751
0.00011387
-0.000274536
-1.08471e-05
-0.000466332
0.000184444
-0.000521367
-0.000100944
-0.000173592
-0.000424898
-0.000240454
0.000483811
2.98302e-05
-0.00079968
0.000289042
-0.000532008
1.06417e-05
-0.000242967
-0.000300926
0.000330756
-0.000346554
4.56281e-05
-7.6397e-05
-0.000238821
0.000162424
-3.90299e-05
-0.000132048
9.3018e-05
1.26315e-05
5.50587e-06
2.43868e-05
-2.98927e-05
1.27618e-05
-2.40502e-05
4.84371e-05
6.98223e-05
-9.38725e-05
8.24538e-05
-4.69401e-05
-4.69324e-05
-0.000208836
-2.4262e-05
-5.63074e-06
-7.11944e-05
-1.78836e-05
-0.000102305
-0.000106531
-0.000271927
-0.000104204
-0.000167724
-0.000680881
-9.42893e-05
0.00033504
0.00047922
0.00110188
-0.000443731
-0.00023715
0.000997643
0.000104235
1.87253e-05
2.62015e-05
0.000128601
4.65962e-05
8.20045e-05
0.000381636
5.40443e-05
-0.000227636
1.35546e-05
-7.32801e-05
-0.000154356
-0.000313734
-0.000303092
-0.000234937
-6.81552e-05
-0.000477904
-0.000147148
0.000192012
-2.95878e-05
-0.00023764
9.04918e-05
5.34874e-05
2.89664e-05
0.000146505
0.000116918
4.09991e-05
7.43796e-06
6.99654e-05
1.77086e-05
-4.91583e-05
-2.20361e-05
-0.00015569
-2.31024e-05
5.21876e-06
-4.51385e-05
-2.80766e-06
1.52469e-05
-1.50056e-07
4.14485e-05
-0.000103313
-5.23766e-05
-0.000271037
-0.000148734
-0.000122302
-0.000385884
0.000342294
3.93421e-05
0.00044653
6.06455e-05
9.45213e-06
3.19963e-05
9.14566e-05
0.000130799
9.71272e-05
-2.71617e-05
0.000214045
-0.000236381
8.20256e-05
-0.000304537
-1.85667e-05
-5.39815e-06
-8.0709e-06
7.92085e-06
-6.56082e-06
-4.08092e-05
-4.32927e-06
-9.31858e-05
-1.27268e-05
9.91917e-06
-1.70561e-05
6.26627e-06
1.14611e-05
-3.54026e-06
4.34574e-05
-7.53071e-05
-1.78787e-05
-0.000197609
-0.000136964
3.34867e-05
9.97069e-06
0.000164286
2.73216e-05
-8.4221e-06
4.88184e-06
5.09322e-06
-8.19691e-06
-1.4676e-06
-9.8897e-06
-7.68103e-07
-7.42881e-06
-3.4729e-06
-3.03784e-05
1.33223e-05
-4.82572e-05
-1.81524e-06
8.08151e-06
1.15071e-05
8.08138e-06
1.31559e-05
-8.27409e-06
2.31266e-05
3.05164e-05
-7.38981e-06
-5.7838e-05
9.58081e-06
-4.50968e-07
-9.43874e-06
-8.72507e-06
-2.52249e-06
-4.90632e-06
-1.19612e-05
-2.04675e-06
-6.95307e-06
2.83208e-06
8.675e-06
1.24129e-05
-4.25714e-06
7.67614e-06
3.82424e-06
1.24992e-05
-2.5801e-06
-6.14496e-06
-9.96992e-06
-1.12785e-05
1.30853e-06
1.13443e-06
8.30989e-07
6.84515e-06
4.07245e-06
-8.19381e-06
-3.76743e-06
-1.43388e-05
-4.7713e-06
-8.53873e-06
4.98789e-07
6.34636e-06
1.2998e-05
1.41324e-05
-1.30063e-05
-1.33249e-06
1.16978e-05
2.43469e-06
2.14089e-06
8.48724e-06
-7.32015e-06
-8.65264e-06
-8.94562e-06
6.51093e-06
)
;

boundaryField
{
    movingWall
    {
        type            calculated;
        value           uniform 0;
    }
    fixedWalls
    {
        type            calculated;
        value           uniform 0;
    }
    frontAndBack
    {
        type            empty;
        value           nonuniform List<scalar> 0();
    }
    defaultFaces
    {
        type            empty;
        value           nonuniform List<scalar> 0();
    }
}


// ************************************************************************* //
