/*--------------------------------*- C++ -*----------------------------------*\
  =========                 |
  \\      /  F ield         | OpenFOAM: The Open Source CFD Toolbox
   \\    /   O peration     | Website:  https://openfoam.org
    \\  /    A nd           | Version:  8
     \\/     M anipulation  |
\*---------------------------------------------------------------------------*/
FoamFile
{
    version     2.0;
    format      ascii;
    class       volScalarField;
    location    "19000";
    object      p;
}
// * * * * * * * * * * * * * * * * * * * * * * * * * * * * * * * * * * * * * //

dimensions      [0 2 -2 0 0 0 0];

internalField   nonuniform List<scalar> 
4109
(
-0.00552553
-0.017785
-0.00879451
-0.0287606
-0.0299011
-0.0185345
-0.028713
-0.0146653
-0.0392312
-0.0397004
-0.0390217
-0.0429664
-0.00912962
-0.0228961
-0.0317827
-0.0463731
-0.0507349
-0.0467451
-0.0451153
-0.0419978
-0.00271965
-0.0324537
-0.0327689
-0.0537986
-0.0546423
-0.0622751
-0.00303763
-0.008253
-0.0055927
-0.0520825
-0.0456159
-0.0470727
-0.0299935
-0.0869037
-0.061852
-0.057274
-0.0622777
-0.0762919
-0.0165249
-0.00504023
-0.000179072
-0.013237
0.000369532
-0.0561591
-0.0518678
0.0902561
-0.0558633
-0.0471474
-0.0550995
-0.0764533
-0.0683465
-0.0659167
-0.071714
-0.0884854
-0.0239562
-0.0109572
-0.00519439
0.0150108
-0.00957893
-0.021012
-0.0678254
0.0650796
-0.0617044
-0.0562653
-0.0523826
-0.0337308
-0.0585363
-0.0520042
-0.0577887
-0.0537248
-0.105412
-0.080481
-0.125725
-0.125603
-0.127185
-0.0299452
-0.0327425
-0.0231412
-0.0123218
-0.0206117
-0.0117974
-0.0150708
-0.0160016
-0.0261662
0.0156383
-0.20677
0.123733
-0.236286
-0.0080633
-0.0812739
-0.0713048
-0.0615879
-0.0557931
-0.0534239
-0.0541248
0.0316238
-0.0531053
-0.0620718
-0.125481
-0.108881
-0.0979314
-0.139533
-0.137423
-0.145646
-0.151144
-0.0344188
-0.0374082
-0.0398946
-0.0230493
-0.00477238
0.0639416
-0.0153699
-0.015619
-0.0236558
-0.0302089
-0.578967
0.112118
0.0118663
-0.00552194
-0.309727
-0.120349
0.261539
-0.0883515
-0.0778304
-0.069629
-0.0563396
-0.0551343
-0.0465269
-0.0744516
-0.063337
-0.0570179
-0.119956
-0.111702
-0.148662
-0.133546
-0.178182
-0.166575
-0.0415825
-0.0475502
-0.0504057
-0.0340094
0.00853422
0.0595789
-0.0129569
-0.0243076
-0.0271556
-0.0345252
0.0879731
0.0820097
-0.215355
-0.100514
-0.137522
0.0954425
-0.0863045
-0.0842274
-0.0757808
-0.0602033
-0.0487078
-0.0438258
-0.0397025
-0.00610194
-0.0286959
-0.109049
-0.100064
-0.148143
-0.123473
-0.166362
-0.181521
-0.214799
-0.0519662
-0.0580866
-0.062731
-0.0508979
0.0079723
0.0295639
-0.019882
-0.0237463
-0.0259037
-0.0427711
0.0191886
-0.158055
0.0161764
-0.0697262
-0.0838345
-0.0218435
-0.0804187
-0.085364
-0.0724378
-0.0459783
-0.0461499
-0.0282163
-0.0139114
-0.0107756
-0.0931403
-0.100552
-0.138661
-0.112059
-0.157516
-0.185377
-0.216395
-0.256854
-0.066287
-0.0724647
-0.0756418
-0.0670106
-0.0157335
0.00398081
-0.0100914
-0.0119393
-0.0241673
-0.0567747
-0.0928367
-0.103656
-0.0847193
-0.0154752
-0.0943633
-0.0462666
-0.0769217
-0.0783194
-0.0945971
-0.0488291
0.0960175
0.0667233
-0.0808834
-0.0860689
-0.127784
-0.0968481
-0.147418
-0.178901
-0.215676
-0.256421
-0.302679
-0.0824307
-0.0866285
-0.0872447
-0.0800608
-0.00853274
0.0294163
0.00992505
0.0132254
-0.0989324
-0.0381429
-0.0735722
-0.063866
-0.0630784
0.0545247
-0.138853
-0.208944
-0.0525867
-0.0851607
-0.0605286
-0.0901933
0.0603819
0.0674136
-0.0634442
-0.0656674
-0.111737
-0.0768413
-0.131142
-0.169939
-0.206605
-0.249161
-0.298435
-0.349613
-0.104186
-0.0950403
-0.0917909
-0.116266
0.0209768
0.101307
-0.0172956
-0.113172
-0.0906171
-0.0616226
-0.175211
-0.129483
-0.231244
0.0634264
-0.197115
0.0100982
1.07812
-0.05667
-0.0104081
-0.337645
-0.0965783
-0.0537579
-0.0292492
-0.0864179
-0.0444888
-0.109016
-0.153137
-0.196186
-0.237447
-0.285904
-0.333442
-0.370402
-0.383065
-0.113513
-0.116781
-0.108162
-0.134043
-0.130456
0.0198048
0.100875
-0.0553823
-0.107426
-0.0841772
-0.0650621
-0.222333
-0.0284125
-0.048435
0.402636
0.0500961
1.084
1.12375
1.13628
1.02866
1.02891
0.97049
-0.661712
-0.249244
-0.148243
-0.112634
0.0145469
-0.0465823
-0.0389305
-0.0807535
-0.132177
-0.178204
-0.371172
-0.226211
-0.272027
-0.32245
-0.394567
-0.400793
-0.411596
-0.386526
-0.136853
-0.13638
-0.153329
-0.148371
-0.125027
-0.0256088
-0.0109104
-0.0909345
-0.103884
0.335376
0.118108
1.01255
-0.105032
1.19988
1.1636
1.16969
1.07779
1.19672
1.21869
-0.314783
-0.362353
-0.329407
0.94671
0.922039
0.993096
0.909691
1.01662
0.109371
0.164563
0.160875
0.0233328
-0.0275464
-0.399231
-0.104885
-0.109157
-0.155312
-0.204948
-0.360137
-0.261022
-0.310949
-0.437767
-0.419114
-0.424728
-0.437655
-0.427319
-0.437958
-0.166428
-0.159358
-0.174223
-0.165188
-0.141975
-0.122673
-0.09667
-0.153446
-0.104093
0.778517
0.616145
1.24484
1.23211
1.15623
1.27709
1.3057
-0.247356
-0.192463
-0.194941
-0.484509
-0.31948
0.827186
0.812187
0.842603
0.942137
1.08288
-0.0893265
0.445982
0.435822
0.0322366
-0.0790039
-0.394406
-0.420999
-0.114745
-0.131119
-0.173926
-0.234483
-0.354409
-0.302888
-0.473086
-0.451149
-0.484174
-0.474643
-0.518133
-0.597453
-0.197833
-0.18564
-0.120144
-0.203043
-0.178569
-0.158223
-0.138434
-0.223363
-0.108682
-0.0777747
-0.104797
-0.263073
1.2051
1.32599
1.32307
1.2315
1.37116
1.40722
-0.797867
-0.0184769
0.187977
-0.0813487
-0.0973831
0.629666
0.410324
-0.31365
-0.168708
0.716415
0.842837
0.987764
1.16514
-0.155451
0.0240092
0.132129
-0.027437
-0.101798
-0.401099
-0.445938
-0.129037
-0.144268
-0.191905
-0.269607
-0.354574
-0.528409
-0.491498
-0.552951
-0.553534
-0.655171
-0.867502
-0.231865
-0.24469
-0.21594
-0.123046
-0.134626
-0.174412
-0.193917
-0.150501
-0.245193
-0.215724
-0.521883
-0.25051
-0.239578
-0.0475209
1.25024
1.23371
1.16555
1.42906
1.42573
1.32478
1.4859
1.53935
-0.632209
-1.19533
0.0453338
0.200322
0.0721234
0.402794
0.584334
-0.0991594
0.0132841
0.711798
0.870683
1.07815
1.2783
-0.257082
-0.225586
-0.22926
-0.0576122
-0.047064
-0.101539
-0.414465
-0.477225
-0.136765
-0.160902
-0.225902
-0.323471
-0.539996
-0.597729
-0.643857
-0.667025
-0.869589
-1.17167
-1.45114
-0.269793
-0.282368
-0.145782
-0.14071
-0.165202
-0.185281
-0.209466
-0.281751
-0.242481
-0.202729
-0.0787399
0.366394
1.3257
1.30238
1.23987
1.07012
1.16194
1.54991
1.5508
1.43841
1.59981
1.63101
-0.393969
-0.998015
-1.71282
0.550727
0.253594
0.353273
0.129762
0.184846
0.731275
0.967519
1.22462
1.41151
0.302594
-0.185617
-0.252163
-0.261217
-0.101215
-0.0214322
-0.0522446
-0.394256
-0.478096
-0.198772
-0.135462
-0.285964
-0.568179
-0.664033
-0.756282
-0.829965
-1.09996
-1.38841
-1.76809
-2.05813
-0.315256
-0.320709
-0.120817
-0.147879
-0.166031
-0.187193
-0.223563
-0.317892
-0.283278
-0.244827
-0.0486597
0.0239612
1.43193
0.968013
1.34171
1.27488
1.14741
1.67649
1.6808
1.56814
1.72251
1.73623
1.70155
-0.11045
-2.17689
-0.695766
-1.36915
0.337165
0.548046
0.369684
0.82503
1.15498
1.38505
1.56226
0.0282252
-0.113709
-0.173897
-0.141495
-0.0751091
0.0937301
0.0345578
-0.481623
-0.371784
-0.264579
-0.182759
-0.601871
-0.736982
-1.00282
-0.87309
-1.30771
-1.96732
-1.6266
-2.26245
-2.50007
-0.359484
-0.35643
-0.355637
-0.134685
-0.155786
-0.195288
-0.246825
-0.32095
-0.282237
-0.0871774
-0.0732766
1.55518
1.43181
0.823173
0.955894
1.33541
1.21943
1.04435
1.79483
1.78988
1.70894
1.8459
1.84024
1.81666
0.159217
-2.72916
-0.336237
-1.78282
-0.95061
0.495319
0.65859
0.394371
1.02793
1.33458
1.55793
1.73007
0.0200416
-0.020279
-0.098263
-0.101885
0.0295415
0.178452
-0.00220359
-0.511476
-0.358932
-0.268912
-0.680564
-0.836286
-1.16745
-1.00338
-1.55574
-1.96385
-2.32631
-2.73537
-3.09732
-0.400808
-0.393425
-0.395953
-0.36469
-0.142034
-0.163151
-0.21833
-0.280962
-0.32307
-0.0767549
-0.0420863
1.67776
1.58295
1.51714
1.41462
0.634753
0.81539
0.926477
1.29248
1.15716
1.00568
0.422255
1.88457
1.87231
1.79095
1.85988
1.9549
1.91883
1.9547
0.0572366
-2.27519
-0.508181
-1.3145
0.657108
0.862876
0.429402
1.91293
1.22048
1.53127
1.75987
0.0455879
-0.0418545
-0.0819976
-0.0520343
-0.163873
0.0327617
0.0556481
-0.533827
-0.345805
-0.896361
-0.758483
-1.31853
-1.66383
-1.15534
-2.21197
-2.84311
-3.36359
-0.416118
-0.4497
-0.444592
-0.41539
-0.373062
-0.156791
-0.182055
-0.254277
-0.324295
-0.0770572
-0.0296223
-0.396432
-0.339401
1.69521
1.61909
1.50287
1.37963
0.643472
0.811446
0.945451
1.23303
1.08892
0.456437
0.208182
0.00854204
-0.159745
-0.2742
1.91069
1.94415
1.87876
1.80045
2.09573
2.0067
2.03677
2.00008
-0.0355469
-1.73943
-0.792548
1.04827
0.783993
0.642255
0.38254
2.20323
1.9837
1.44659
1.78037
0.0311192
-0.110732
0.0175454
0.498207
-0.351408
-0.0492692
-0.725067
-0.493761
-1.56098
-1.15115
-1.92962
-2.78937
-3.50486
-0.464116
-0.490435
-0.473987
-0.433649
-0.378831
-0.177048
-0.220475
-0.303489
-0.0573706
-0.0712623
-0.333823
-0.440273
-0.370922
1.7141
1.60614
1.47793
1.32236
0.661756
0.834469
1.00277
1.15686
0.497146
0.254827
0.334143
-0.330679
0.0553886
-0.244223
-0.113732
1.89926
1.96493
1.81813
2.03622
2.25054
2.12712
2.08121
2.38182
-0.24719
-1.14012
1.28129
1.15733
1.02127
0.999842
0.320009
2.07158
2.34373
1.78109
0.219196
0.148033
0.90137
0.566177
-0.251422
-0.391288
-0.877453
-0.565326
-1.67142
-2.56348
-3.4993
-0.51899
-0.532488
-0.505348
-0.451428
-0.368814
-0.228816
-0.280306
-0.0935439
-0.106747
-0.410856
-0.520036
1.83139
1.71881
1.58649
1.42855
1.23837
0.691799
0.884615
1.06017
0.535221
0.378929
0.189443
-0.41595
-0.367105
0.0387017
-0.277875
-0.137211
1.92423
2.00418
1.94488
2.12193
2.55428
2.3994
2.23118
2.53107
1.94688
-0.483713
1.71694
1.59081
1.43888
0.940425
0.234369
2.36233
2.20652
2.52624
0.198198
0.63595
2.1607
0.458298
0.476324
-1.23442
-0.769016
-2.15885
-3.33796
-0.586914
-0.581563
-0.5446
-0.462223
-0.297967
-0.362407
-0.155429
-0.149012
-0.521764
-0.627463
1.83651
1.7123
1.55036
1.3349
1.13114
0.739186
0.935516
0.57406
0.382245
0.187994
-0.503392
-0.441026
0.000316902
-0.33403
-0.182888
2.08378
2.02874
2.28307
2.93895
2.71644
2.73419
2.55359
2.00295
1.88104
1.5594
0.983595
2.28399
2.72102
3.03331
0.121119
0.849277
-0.129585
-0.198455
-1.67497
-0.963686
-2.98835
-0.65554
-0.64566
-0.590284
-0.295424
-0.454002
-0.346243
-0.647974
-0.720214
1.69426
1.84755
1.45846
1.20409
0.998583
0.783579
0.603384
0.395274
0.171316
-0.626136
-0.554546
-0.0554393
-0.432033
-0.262035
2.13778
2.23397
2.52651
3.24889
2.98237
2.83352
3.49526
2.04468
2.12943
1.7327
2.66911
3.11735
3.54224
-0.208112
0.0810945
0.121353
-0.19566
-2.39659
-1.35417
-0.745983
-0.717065
-0.486888
-0.60317
-0.620872
-0.760357
-0.842651
1.63037
1.82905
1.32174
1.07385
0.83738
0.638585
0.402
0.141311
-0.753532
-0.68483
-0.120044
-0.550355
-0.357049
2.25322
2.42314
2.80931
3.51112
3.17329
3.92379
2.02955
2.44922
3.13035
3.71764
4.23682
-32.2646
-0.239645
0.284296
0.336332
-0.404779
-31.5187
-0.852381
-0.764652
-0.888703
-1.00571
-0.709451
-0.911918
-0.993314
1.75146
1.51231
1.19673
0.910375
0.689493
0.41247
0.106136
-0.923981
-0.853338
-0.19819
-0.699395
-0.474725
2.65421
2.34258
3.29016
3.97104
4.59891
2.52078
2.07567
-34.352
-32.2649
-0.14803
0.149177
0.193399
-29.4858
-31.3935
-31.7483
-0.989016
-1.03988
-1.17237
-1.1974
-0.82488
-1.11749
-1.19034
1.71658
1.41375
1.03318
0.779341
0.43001
0.0517021
-1.17476
-1.0938
-0.311278
-0.638335
-0.905741
3.09208
3.90919
4.73341
2.93846
2.51732
2.07915
-35.3383
-34.4215
-32.2658
-0.50395
-28.8948
-31.1341
-33.9285
-30.9593
-1.32352
-1.49492
-1.54117
-1.34402
-1.42982
-1.46541
1.64138
1.24328
0.941358
0.47012
-0.00749369
-1.56691
-1.43701
-0.448876
-0.842951
-1.17645
3.75833
4.71494
2.85154
3.50994
2.52589
2.06909
-36.1756
-35.4852
-34.4554
-32.2498
-35.0411
-27.4369
-28.6532
-30.8816
-34.0641
-30.7471
-1.76564
-1.98053
-2.3202
-1.92765
-1.76908
-1.93898
1.51365
1.01735
0.454236
-0.102702
-2.15623
-1.86623
-0.628105
-1.10114
-1.51594
4.54757
3.21389
4.20034
2.76774
2.20237
-36.1855
-35.6101
-34.472
-32.2295
-33.8681
-35.2817
-27.5703
-27.4384
-28.5248
-30.6545
-33.9775
-30.7322
-2.30471
-2.89541
-2.43795
-2.56341
-2.69961
1.60744
1.00511
0.377264
-0.258322
-2.53263
-2.25107
-0.862405
-1.40859
-1.88443
3.72431
3.13599
2.45535
-38.8087
-36.0601
-35.6967
-34.482
-32.2064
-33.9367
-35.4449
-25.4523
-27.6084
-27.4078
-28.4329
-30.4474
-33.8518
-30.6516
-3.21607
-3.36429
-3.41106
-3.36228
1.74582
1.00963
0.259551
-0.472565
-3.132
-2.76566
-1.1558
-1.77284
-2.31494
-41.6612
-38.9167
-35.9432
-35.7584
-34.4935
-32.1838
-34.0725
-35.6046
-25.0134
-25.4713
-27.6378
-27.3599
-28.3608
-30.2623
-33.7073
-30.4831
-46.3565
-41.8575
-38.9898
-35.8558
-35.8037
-34.5075
-32.1608
-34.1867
-35.777
-21.0324
-25.1934
-25.4866
-27.641
-27.3332
-28.2892
-30.1434
-33.5588
-30.2811
-49.0538
-46.2015
-41.9699
-39.0505
-35.7971
-35.8391
-34.5238
-34.2729
-35.9664
-25.3543
-20.8346
-25.3257
-25.4861
-27.6251
-27.3227
-28.2126
-33.4392
-94.1993
-48.618
-46.1772
-42.0501
-39.0801
-35.7587
-35.862
-34.3232
-36.141
-20.0996
-26.1354
-20.8433
-25.3898
-25.4847
-27.6001
-27.3286
-33.3858
-30.5459
-103.5
-47.506
-46.2372
-42.1109
-39.0857
-35.7391
-34.324
-21.6878
-20.2192
-26.9601
-20.8725
-25.414
-25.4853
-27.575
-27.3355
-44.5261
-30.9094
-112.461
-46.2843
-46.3208
-42.1429
-39.0751
-34.2933
-20.9461
-21.7546
-20.2885
-27.7463
-20.9074
-25.4159
-25.492
-27.5655
27.535
-52.1171
-30.5401
-120.556
-45.0496
-46.3954
-42.1505
-39.051
-20.8957
-20.9037
-21.833
-20.3599
-28.4751
-20.952
-25.4094
-25.5
35.0709
30.6569
-60.6029
-29.9498
-127.694
-43.8002
-46.4016
-42.1342
-20.475
-20.84
-20.8635
-21.8881
-20.4459
-29.1813
-20.9809
-25.4185
47.3697
36.2098
33.8079
-68.484
-29.2353
-134.433
-42.6545
-46.3367
-20.4794
-20.4063
-20.7853
-20.8297
-21.9263
-20.5427
-29.8646
-20.9704
50.0491
48.2384
37.3982
36.1816
-75.6613
-28.3785
-141.488
-41.8852
-20.9048
-20.408
-20.3331
-20.7322
-20.8041
-21.9544
-20.6373
-30.2904
49.9718
50.6044
49.1482
38.3962
38.2131
-82.6949
-27.608
-146.792
-20.9509
-20.8468
-20.333
-20.2653
-20.6821
-20.785
-21.9762
-20.7059
47.5855
50.5685
51.2202
49.8832
39.3477
40.1637
-90.481
-27.5197
-21.6873
-20.9054
-20.7908
-20.2639
-20.2053
-20.6369
-20.7693
-21.9908
34.7834
48.318
51.1636
51.7787
50.4765
40.322
42.136
-97.0174
-20.0308
-21.7583
-20.8639
-20.7361
-20.2029
-20.1536
-20.6018
-20.7578
27.2713
35.8929
49.1838
51.7055
52.2669
50.9715
41.2981
43.6025
-25.3213
-20.1156
-21.8374
-20.8292
-20.6842
-20.1502
-20.1151
-20.5847
-44.248
30.3259
37.0571
49.8958
52.1829
52.6963
51.3564
41.8967
-20.9838
-26.1571
-20.1785
-21.8939
-20.8033
-20.637
-20.111
-20.0974
-30.395
-51.9933
33.4004
38.0026
50.4731
52.6041
53.0527
51.5791
-24.8724
-20.7772
-26.9939
-20.2459
-21.9342
-20.784
-20.6
-20.0929
-94.0436
-30.9925
-60.5061
35.6652
38.887
50.9452
52.9529
53.254
-25.3462
-25.0536
-20.779
-27.7796
-20.3264
-21.9649
-20.7683
-20.582
-48.9835
-103.72
-30.7075
-68.3303
37.5648
39.8296
51.3177
53.1499
-27.4991
-25.3712
-25.1818
-20.8062
-28.5062
-20.416
-21.9891
-20.7567
-45.7037
-48.4491
-112.74
-30.1581
-75.4066
39.3439
40.7797
51.5301
-27.2306
-27.5251
-25.387
-25.2413
-20.8415
-29.209
-20.5056
-22.0049
-41.5735
-45.5559
-47.2379
-120.847
-29.4799
-82.3688
41.0092
41.387
-30.5485
-34.2786
-27.2381
-27.5552
-25.3882
-25.263
-20.8856
-29.8787
-20.568
-38.2669
-41.7376
-45.5414
-45.9568
-128
-28.6554
-90.0264
42.2476
-28.1869
-30.4814
-34.3093
-27.2069
-27.5612
-25.3884
-25.2598
-20.9128
-30.2916
-33.8464
-38.3885
-41.828
-45.6025
-44.6634
-134.735
-27.8876
-96.5391
-34.618
-30.9784
-27.869
-30.5524
-34.2401
-27.1586
-27.5478
-25.3908
-25.2524
-20.9022
-33.7441
-38.4695
-41.8976
-45.6839
-43.3631
-141.797
-27.7816
-34.9758
-35.8009
-31.7621
-30.7787
-27.751
-30.508
-34.1586
-27.1319
-27.5248
-25.3977
-25.2595
-35.2408
-34.0741
-33.8623
-38.5345
-41.949
-45.7505
-42.1564
-147.122
-35.1536
-35.8483
-31.7158
-30.5066
-27.6504
-30.3766
-34.0502
-27.1252
-27.5016
-25.4067
-35.3258
-34.1496
-33.9887
-38.5679
-41.9799
-45.7473
-41.3808
-35.2999
-35.741
-31.6814
-30.2657
-27.5757
-30.1888
-33.9329
-27.1294
-27.492
-35.4437
-34.1574
-34.0845
-38.5794
-41.9885
-45.672
-35.4562
-35.6248
-31.653
-30.0523
-27.5269
-29.9809
-33.8417
-27.1353
-35.534
-34.1647
-34.1407
-38.57
-41.9725
-35.6292
-35.5361
-31.6253
-29.8546
-27.4762
-33.8069
-35.5984
-34.1716
-34.1477
-38.547
-35.7907
-35.4779
-31.5961
-29.6842
-27.4104
-35.6455
-34.1826
-34.1186
-35.4413
-31.5624
-29.5733
-35.6825
-34.1981
-35.4228
-31.5392
-35.7073
-34.2148
-3.2459
-3.63077
-3.68279
-4.19678
-4.17461
-4.74419
-3.17538
-3.64227
-2.7187
-3.96212
-4.02908
-4.58254
-4.6717
-5.33575
-5.33729
-6.00509
-8.06809
-8.83659
-8.89841
-9.81512
-9.63716
-5.98529
-6.66301
-4.7128
-5.33216
-3.56046
-4.09325
-2.60611
-3.01759
-2.13463
-10.5689
-10.2025
-4.15345
-4.34032
-4.93676
-5.04418
-5.65693
-5.87291
-6.63748
-6.66354
-7.42927
-7.37085
-8.08262
-8.83283
-9.6185
-9.60846
-10.4497
-10.6307
-11.6345
-11.5288
-6.60727
-7.32354
-7.29117
-8.08203
-8.01421
-8.80413
-9.29226
-5.21739
-5.84894
-3.9141
-4.47652
-2.83583
-3.26719
-1.9417
-2.27294
-1.46085
-8.67404
-9.07607
-12.4997
-13.4219
-10.1385
-10.9282
-11.8955
-4.23763
-4.47182
-5.09511
-5.33616
-6.03499
-6.14475
-6.88773
-7.18562
-8.01457
-8.09767
-8.89401
-9.66635
-10.5086
-10.4649
-11.3051
-11.26
-12.2287
-12.3962
-13.0997
-13.4252
-14.5251
-14.0351
-14.9091
-5.69059
-6.47568
-6.58343
-7.26248
-7.45617
-4.27028
-4.89187
-3.01256
-3.50786
-2.01575
-2.36249
-0.703001
-1.18491
-1.44939
-7.12544
-7.89899
-7.64741
-8.80007
-10.168
-14.4858
-12.5421
-13.9355
-11.4015
-12.5703
-4.15013
-4.49878
-5.16377
-5.45798
-6.18222
-6.48152
-7.21247
-7.41558
-8.22844
-8.50198
-9.18474
-9.66834
-11.2126
-10.8346
-12.238
-12.2533
-13.3221
-13.2481
-13.8861
-14.6734
-15.1384
-15.1985
-16.1152
-15.8288
-15.6714
-16.2353
-16.3608
-17.5618
-4.90711
-5.73067
-5.33333
-6.04831
0.142194
-0.340168
-3.35215
-4.08548
-2.02915
-2.50956
-0.516217
-1.086
-1.35682
1.03103
0.585331
-5.67171
-6.46387
-6.31795
-18.7048
-17.6334
-19.3421
-7.67304
-8.98262
-10.2801
-11.4593
-13.7469
-14.8803
-16.5573
-15.8937
-12.7156
-13.8039
-3.91406
-4.33891
-5.05823
-5.45962
-6.21869
-6.55711
-7.31836
-7.64121
-8.73923
-8.41115
-9.62102
-9.81814
-10.7202
-11.2803
-12.8969
-12.3754
-13.8427
-13.961
-14.6458
-15.2243
-15.0922
-20.674
-21.084
-19.8245
-16.1999
-15.9704
-16.9607
-16.9214
-17.2806
-18.0893
-17.6741
-19.8151
-19.0679
-29.4933
-30.2221
-29.8764
-32.5016
-31.3185
-30.8581
-31.088
-30.7755
-3.67912
-4.26424
-3.72096
-4.40801
0.510477
-0.0600795
-2.11789
-2.69312
-0.254061
-0.941786
-1.26795
1.92352
1.54964
1.57421
1.06376
-3.95026
-4.83742
-7.67655
-4.49669
-6.0222
-29.19
-27.612
-23.5569
-22.7978
-21.4133
-17.0134
-18.4121
-19.1837
-20.6403
-7.89706
-8.99915
-8.85264
-10.3855
-11.7215
-13.0265
-14.3319
-15.1541
-16.5302
-29.9027
-30.8706
-32.4357
-30.7902
-32.2262
-33.8916
-32.7426
-31.898
-33.1643
-32.9857
-3.39012
-4.00847
-4.81938
-5.31784
-6.1417
-6.56994
-7.48429
-7.77388
-8.57462
-8.85304
-10.2451
-9.77536
-11.0992
-11.2575
-12.2718
-12.846
-12.8838
-14.2252
-13.8144
-14.9884
-15.6973
-15.646
-16.6714
-16.7532
-16.3875
-22.033
-22.9562
-25.0852
-24.2156
-21.6892
-20.7716
-17.6978
-17.779
-18.3884
-18.6539
-20.6361
-19.4414
-19.1159
-25.6766
-27.6705
-27.2289
-27.7821
-27.1627
-29.2517
-29.5022
-30.0809
-32.1818
-31.2031
-31.6291
-31.3436
-31.7509
-31.8618
-32.3998
-32.08
-31.6308
-31.7502
-2.04828
-2.55811
-1.84374
-2.54377
1.00962
0.317083
0.146447
-0.662715
-0.968621
2.76478
2.45262
2.58173
2.15461
2.24387
1.69473
-1.70575
-2.33236
-3.6505
-3.98217
-5.51621
-6.41313
-2.94641
-24.8105
-27.2641
-26.1763
-30.0212
-28.6884
-24.0926
-25.2859
-23.4649
-21.4946
-6.47709
-21.2385
-17.4419
-19.8222
-18.7787
-7.55946
-8.53765
-10.0853
-10.5762
-12.1437
-12.5931
-14.3825
-15.3739
-17.1312
-30.1225
-31.0011
-29.9898
-32.9843
-32.7026
-34.2814
-32.4618
-32.3237
-31.5173
-32.0574
-33.2861
-32.9809
-2.72712
-3.37155
-2.13884
-2.19672
-4.32952
-5.03809
-6.00761
-6.48793
-7.49901
-8.0325
-9.1183
-9.23688
-10.5307
-11.3784
-10.2574
-12.0176
-12.6195
-13.5727
-14.0945
-14.9096
-13.5621
-14.1007
-15.5956
-15.6353
-15.6599
-16.476
-16.3507
-16.451
-16.4369
-17.1853
-17.2965
-18.0033
-18.3696
-22.6255
-23.6164
-24.6988
-24.0705
-22.2986
-21.6062
-19.3371
-19.6442
-21.4341
-20.4565
-20.3662
-25.5169
-25.1598
-25.5711
-28.3523
-27.2056
-29.0678
-28.8398
-30.5396
-27.628
-30.0968
-30.3885
-31.8278
-31.4263
-31.0729
-32.3259
-30.4022
-31.4987
-0.446983
-0.250203
-0.654627
0.0265996
1.68477
0.926426
0.73493
0.287585
3.58245
3.34702
3.60376
3.24963
3.4546
2.96512
3.0763
2.41723
4.30781
4.16588
4.89192
4.91475
5.47966
5.33385
1.08559
-0.514638
-1.29951
-1.34175
-5.19542
-3.45041
-1.57563
-0.795359
-28.7032
-28.2711
-26.6534
-22.493
-25.7651
-24.2934
-4.91006
-6.66219
-8.43719
-22.7884
-18.6246
-21.2125
-19.9829
-10.1922
-11.2517
-12.7706
-13.2749
-14.8993
-15.4481
-17.456
-29.0438
-32.7864
-33.4221
-32.2911
-31.3097
-34.3231
-35.3253
-34.4926
-35.3087
-33.1498
-33.1279
-33.7083
-34.4413
-34.0559
-1.31335
-1.825
-4.31693
-4.37163
-3.13014
-3.73055
-5.69139
-6.249
-8.05075
-8.09697
-9.19467
-9.67038
-11.2753
-11.2279
-12.1143
-12.7024
-13.669
-13.9917
-14.9165
-14.7594
-15.5106
-16.113
-17.0367
-16.691
-17.319
-16.9806
-17.6933
-17.7275
-17.9606
-17.8898
-18.68
-19.0217
-19.6714
-20.0499
-24.2192
-22.9581
-23.8439
-23.2657
-22.2575
-20.651
-21.6446
-21.0746
-21.4849
-26.3886
-24.9484
-27.4622
-25.9354
-27.9535
-28.1801
-27.4723
-31.0978
-28.9262
-32.9833
-31.1009
5.53863
5.80876
0.937489
1.14201
2.43951
1.68924
1.82153
2.12569
2.42185
4.50847
4.21141
4.51571
4.12583
4.39819
3.88197
4.12919
3.45825
5.35362
5.21136
6.02203
6.033
6.63205
6.44332
2.96235
2.53489
2.46635
0.68178
-3.10264
-1.53243
0.144393
1.39326
-24.7851
-26.8097
-28.0089
-3.18124
-5.21566
-7.08292
-9.13877
-11.0026
-22.6426
-24.4848
-18.9065
-21.7457
-13.0306
-14.2434
-16.431
-16.8463
-19.0901
-28.8951
-31.1342
-30.6944
-33.8538
-31.3617
-32.9547
-34.7693
-34.7689
-35.4694
-33.5292
-34.5967
-34.8237
-35.2307
-34.0464
-1.11872
-3.10767
-2.28266
-1.92887
-2.37125
-4.07375
-4.97328
-5.35534
-4.07636
-5.21514
-7.91598
-8.15883
-9.5759
-9.05058
-11.9395
-12.1849
-14.3294
-13.2978
-13.278
-14.0697
-14.286
-15.3113
-15.6207
-16.3273
-16.7445
-17.7603
-18.3192
-18.2204
-17.9997
-18.5865
-18.7006
-18.2656
-19.5404
-19.4506
-19.4756
-19.9387
-21.3649
-24.7537
-24.3198
-23.3045
-22.114
-21.5301
-22.952
-22.6221
-22.0839
-25.5906
-25.4591
-27.4209
-26.5521
-27.7076
-27.8247
-27.9488
-27.6448
5.54597
5.92713
6.58895
6.9302
3.64164
3.01876
3.33152
4.38175
4.28329
5.6719
5.39444
5.84892
5.26863
5.54034
4.88504
4.99266
6.4897
6.5967
7.34004
7.29569
8.01684
7.68692
6.15545
4.91558
4.23663
3.41032
4.65433
7.65327
-1.38442
0.278774
2.41962
4.09703
-1.23021
-28.6329
-26.4844
-2.97507
-5.26846
-7.45744
-9.7872
-12.8664
-14.974
-14.4775
-21.3762
-26.0305
-23.6715
-17.8403
-18.4126
-21.0288
-32.076
-30.0405
-35.1523
-33.6908
-35.7709
-35.8092
-36.2896
-35.4078
-35.5229
-34.193
-2.96188
-2.4049
-2.71756
-3.80313
-3.9257
-3.30229
-4.04318
-5.79637
-6.84299
-8.02892
-6.40471
-8.10702
-8.09578
-8.95645
-12.9797
-12.2199
-13.7296
-13.8966
-16.788
-15.0264
-14.9024
-14.1798
-16.161
-17.611
-17.141
-18.3706
-18.5556
-18.3427
-19.1783
-18.372
-19.5183
-20.0209
-20.0726
-18.8874
-20.6723
-20.0734
-20.5786
-21.7558
-22.7893
-25.8162
-25.0826
-21.8761
-21.9965
-22.9009
-22.4479
-26.0445
-25.8585
-27.1044
-26.2773
-27.602
-27.0242
-3.52454
-3.58794
5.33694
5.84531
6.47931
6.9426
7.66375
8.21514
5.93674
5.79176
6.73571
7.81351
8.4232
7.10384
6.82604
7.31723
6.6016
6.98221
8.08867
8.08855
8.91687
8.828
9.67024
9.11297
9.63748
7.68157
6.26796
6.63218
10.3777
9.55669
1.01539
2.95382
5.67365
7.28256
1.34192
-0.673993
-2.81157
-32.514
-28.7715
-5.77819
-8.824
-12.1891
-14.4489
-18.3939
-19.8284
-23.5839
-27.3934
-30.4521
-25.1543
-37.7245
-35.2126
-38.5726
-38.8509
-39.2724
-38.1082
-39.1569
-38.3112
-4.27589
-4.00978
-5.15747
-5.22626
-6.07541
-5.42182
-6.28767
-7.71803
-8.60602
-9.71069
-8.44404
-9.70384
-13.7159
-11.0149
-12.1967
-13.1329
-14.1217
-14.0966
-15.2848
-17.569
-16.067
-17.4425
-15.9045
-18.7199
-18.0557
-20.3243
-18.7625
-19.6466
-18.9585
-19.1356
-19.0222
-20.0186
-20.4161
-20.367
-20.5311
-20.1747
-21.3432
-21.1702
-21.8745
-22.1663
-23.4165
-22.3351
-24.4362
-23.5145
-23.6683
-25.254
-24.9844
-25.6189
-25.0962
-3.96962
-4.14322
-4.96279
-4.97737
4.89104
5.49138
6.07466
6.64266
7.2959
7.96291
9.50866
8.81023
4.26663
4.88397
10.5926
10.2088
8.3719
8.9038
8.89813
8.56639
9.14997
10.082
9.8942
10.881
10.6276
11.2734
10.4375
12.0966
12.5921
13.4432
12.5794
9.35106
10.3838
6.28137
4.2769
10.6659
9.09469
5.24986
2.71945
-1.24506
3.60352
-4.17373
-6.89642
-37.665
-33.9458
-11.2149
-15.7192
-22.5878
-24.4367
-33.6073
-38.5545
-32.8653
-40.0557
-40.1603
-41.7192
-41.1777
-42.4644
-41.1601
-5.82954
-6.27275
-6.93987
-7.10014
-8.14563
-7.57006
-9.01232
-9.86167
-10.8746
-11.9171
-10.8859
-11.9218
-14.8413
-13.8834
-13.1861
-14.1678
-17.7725
-14.9721
-15.3148
-16.9481
-16.4472
-18.2113
-17.5176
-17.8127
-17.8392
-19.3173
-18.8143
-19.9262
-20.117
-19.7135
-19.7868
-19.5008
-19.4638
-20.4534
-20.6237
-20.6929
-21.035
-20.4621
-20.7018
-20.3004
-21.8396
-21.3496
-23.6239
-22.4727
-24.8209
-23.5631
-21.8942
-25.1024
-24.6014
-4.25642
-4.48741
-5.19003
-5.4117
-6.1792
-6.3894
5.38569
6.07012
6.62477
7.36392
10.8194
9.01124
9.97643
8.13393
3.5325
4.12772
4.52504
5.22392
2.72018
3.31089
1.86012
2.43022
12.5972
11.2472
10.8665
11.8516
11.1175
11.9154
12.3877
12.0626
13.2517
12.4735
12.7799
12.0873
11.9025
14.0743
15.0235
15.2649
16.546
15.9714
13.745
13.0907
10.0426
8.12258
14.4238
13.0938
8.91775
6.52378
-0.338383
-5.23705
6.46845
2.59499
-8.62209
-14.0401
-45.4934
-42.8898
-23.2685
-31.7556
-40.8879
-46.31
-39.8158
-46.5124
-44.4701
-46.5783
-46.2463
-7.34976
-8.14216
-10.2955
-10.3689
-9.39421
-9.40568
-11.1454
-12.1634
-13.079
-13.9293
-13.4556
-14.1667
-16.0183
-15.0059
-14.7024
-15.2934
-18.0291
-17.8743
-16.9312
-18.3758
-16.929
-17.42
-18.6676
-18.9725
-18.2248
-19.4562
-19.4388
-20.6805
-20.2697
-20.2719
-20.1973
-20.1403
-20.764
-20.7288
-20.5583
-20.7429
-20.6374
-20.4166
-21.2074
-20.5917
-21.2827
-23.655
-21.4741
-21.8078
-25.1753
-21.7164
-7.75905
-4.21375
-4.50954
-5.23144
-5.57643
-6.32602
-6.63547
-7.32626
-4.18823
-4.47521
-3.99062
-4.35268
-3.66245
-4.06628
0.999224
1.49234
0.14237
0.564675
-0.693492
-0.319918
-1.44514
-1.16714
-3.25854
-3.70177
-2.72521
-3.19144
-2.12809
-1.92236
-2.60434
5.69239
6.54652
7.17846
8.15374
10.0918
11.0196
8.9784
3.60317
4.29665
4.67356
5.43418
2.5912
3.24991
1.52338
2.12796
10.8862
13.5848
14.9985
13.7235
14.2236
13.8431
15.3961
14.7669
15.8244
14.9626
13.1421
13.3447
11.869
16.4372
16.8014
17.1483
18.4922
18.3644
20.0893
20.0899
17.7336
17.2832
14.4041
12.3409
18.9293
17.5936
12.6529
9.80448
-10.5545
-1.33873
-8.99293
8.38552
2.89175
-20.5204
-24.8587
-47.9699
-50.3381
-35.6498
-66.0244
-55.9179
-54.3652
-47.0297
-8.80448
-9.57283
-11.707
-11.8948
-12.0002
-10.7176
-11.4613
-13.5251
-13.9986
-15.1059
-15.3916
-15.0089
-15.9804
-15.678
-16.3764
-17.1861
-16.2461
-19.4228
-18.874
-17.7269
-18.0844
-18.8927
-18.5419
-19.5074
-19.4554
-20.3977
-20.4059
-20.5741
-20.4708
-20.9517
-20.9361
-20.8542
-21.1642
-20.8935
-20.9763
-20.9467
-20.6488
-21.0694
-20.6538
-20.4976
-24.7958
-20.7209
-9.10711
-7.58395
-8.39293
-5.12764
-5.53715
-6.25111
-6.64337
-7.31367
-4.90181
-5.29938
-4.61783
-5.06316
-4.20663
-4.68118
0.490258
1.0059
-0.481608
-0.0617223
-1.4384
-1.06218
-2.23581
-2.01418
-3.65904
-4.17183
-3.00601
-2.78899
-3.55084
5.86952
6.89504
7.45323
8.72943
9.54699
3.47656
4.25566
4.52084
5.4252
2.19435
2.91444
0.880344
1.54911
8.93776
11.2183
9.77531
17.2388
16.9909
16.443
18.2498
17.4588
18.0426
15.9734
14.3296
14.0974
12.2725
20.2415
18.9361
19.0987
21.9499
21.8838
23.9662
24.0696
22.1815
22.3315
19.142
17.1108
24.1613
22.6571
17.4522
13.8709
-13.2013
-21.7794
-2.24993
-12.1029
11.1014
3.37646
-28.9585
-30.7697
-40.5909
-88.0963
-80.3693
-10.0493
-10.6886
-11.6253
-12.7157
-13.4405
-13.207
-13.2446
-12.6655
-16.0332
-16.618
-17.2016
-17.2174
-16.4482
-17.7421
-17.0522
-17.894
-18.2164
-18.5564
-18.2505
-18.0681
-19.7488
-19.4171
-18.8844
-19.0888
-19.7537
-19.4581
-20.1562
-20.434
-20.6425
-20.6633
-21.1704
-21.0041
-21.0397
-21.1586
-21.3943
-21.3521
-21.4025
-21.3283
-20.0127
-21.5895
-20.8314
-30.2167
-9.04449
-9.89535
-7.73247
-8.62648
-5.97448
-6.4437
-7.29529
-5.77215
-6.28685
-5.31322
-5.89452
-4.68173
-5.26807
-0.256804
0.223699
-1.33289
-0.913896
-2.38874
-2.0181
-3.21914
-3.03601
-4.02484
-3.85166
-4.6114
5.77099
7.01204
7.64157
7.18981
3.00307
3.87766
4.05549
5.09831
1.49544
2.27892
0.00996929
0.794544
9.28731
7.8406
11.6019
10.0801
17.4609
17.4246
21.0669
20.3187
19.6558
18.73
21.3936
21.0738
12.416
16.8182
15.2396
14.1313
23.3775
23.2563
25.811
25.5315
27.0571
27.921
26.5288
28.0147
24.0454
22.3474
28.7694
27.544
23.686
19.7729
21.5734
-18.8565
-28.6677
14.053
-6.01311
-17.6856
-32.4299
-28.568
-13.8434
-10.2153
-11.0372
-11.7307
-12.7173
-13.5964
-15.8987
-14.4703
-15.3553
-17.6881
-17.2393
-18.7452
-18.8111
-17.2564
-18.5719
-19.0893
-19.2026
-19.3563
-18.9371
-19.244
-19.4968
-19.3939
-19.351
-20.2227
-20.0235
-19.7604
-19.8391
-20.1589
-21.047
-20.5757
-20.7632
-21.0931
-21.1078
-21.2589
-21.2515
-21.0584
-21.1736
-21.8583
-21.1549
-9.09773
-9.8162
-7.19856
-7.74005
-8.63812
-6.59873
-7.23825
-5.91428
-6.57177
-5.18183
-5.85402
-1.20336
-0.725007
-2.43304
-1.98617
-3.54257
-3.23907
-4.36919
-4.22751
-5.05651
7.1049
5.32779
6.21111
5.82713
2.31203
3.19714
4.1678
3.38228
0.712694
1.52916
-0.998518
-0.213731
9.06772
7.0838
5.7461
11.391
9.63994
17.916
20.6902
19.5939
20.4599
24.9506
23.5945
24.7894
22.6733
22.9489
14.9555
12.4512
17.6636
16.3104
19.257
27.6157
27.1458
30.8648
33.3155
30.4056
31.1766
31.7828
32.4784
33.4585
28.7874
29.7446
29.9148
25.5529
27.1666
25.8583
21.4427
-21.5791
-39.7416
-36.1986
-15.8404
-10.2798
-14.3899
-14.8855
-11.305
-11.5931
-12.4439
-12.9814
-13.6724
-14.313
-16.1822
-15.9587
-17.5461
-17.2528
-19.756
-19.7994
-18.7248
-18.9644
-20.1945
-20.0084
-19.3651
-19.3411
-20.0045
-20.0904
-20.1313
-20.6619
-20.5213
-20.3407
-20.559
-20.9247
-20.8012
-21.1012
-21.0362
-21.0024
-20.978
-21.0238
-21.0601
-10.2807
-8.00849
-8.60064
-9.36108
-9.66474
-7.30621