/*--------------------------------*- C++ -*----------------------------------*\
  =========                 |
  \\      /  F ield         | OpenFOAM: The Open Source CFD Toolbox
   \\    /   O peration     | Website:  https://openfoam.org
    \\  /    A nd           | Version:  8
     \\/     M anipulation  |
\*---------------------------------------------------------------------------*/
FoamFile
{
    version     2.0;
    format      ascii;
    class       surfaceScalarField;
    location    "19000";
    object      phi;
}
// * * * * * * * * * * * * * * * * * * * * * * * * * * * * * * * * * * * * * //

dimensions      [0 3 -1 0 0 0 0];

internalField   nonuniform List<scalar> 
6926
(
-1.05308
0.0710305
-0.652857
-0.575153
0.174931
-0.941648
0.0740225
-0.11292
-0.539937
0.0688488
-0.756922
-0.752278
-0.0144386
-0.635251
-0.0481787
0.234424
-1.05805
-0.0648821
0.013168
-0.583537
0.177766
-0.717704
-0.644037
0.466534
-0.586708
0.133342
0.0251472
-0.66014
-0.828081
-0.244412
-0.409726
-0.0679182
0.0526745
-0.568293
0.156254
-0.873957
-0.555702
-0.534205
0.000171144
-0.533756
0.257372
-0.680506
-0.165025
-0.767876
-0.57277
-0.794975
-0.217313
-0.210007
0.0233044
-0.38159
-0.191513
-0.574196
-0.122765
-0.751192
-0.896195
0.12969
-0.131169
-0.592822
0.119814
-0.423187
-0.812396
0.0723854
-0.511072
0.000171883
-0.528537
-0.00504799
-0.53411
-0.00349283
-0.102482
-0.938838
-0.388219
0.252407
-0.436958
-0.563079
-0.0424529
-0.10126
-0.471844
-0.185245
-0.511715
0.0459095
-0.797102
-0.113066
-0.705417
0.225661
-1.06843
-0.0014994
0.0947428
-0.787325
-0.00262167
-0.533632
-0.788735
-0.00795642
-0.612508
0.000175776
-0.525005
-0.00335962
0.153228
-0.139928
-0.827724
-0.818035
-0.527905
-0.0112528
-0.534207
-0.0323652
-0.038387
-0.648044
-0.523781
0.0443703
-0.420776
-0.236312
-0.886582
-0.834037
0.0369351
0.000159561
-0.699401
-0.00617636
-0.867638
0.0248692
-0.983455
0.0335756
-0.727568
-0.256033
-0.533914
-0.0107255
-0.522747
-0.753593
-0.131761
-0.14349
-0.759403
-0.849007
0.000187157
-0.528043
0.00321351
-0.519904
-0.0113604
-0.174013
-0.682409
-0.389418
-0.612319
-0.528254
-0.0172059
-0.534173
-0.0219734
-0.0363952
-0.567278
-0.890082
0.0560451
-0.223853
-0.625794
0.143547
-0.0273551
0.275693
-0.391885
-0.332064
-0.558019
0.359358
-0.547875
-0.0835478
0.000177111
-0.61603
0.840962
-0.470747
-0.453763
-0.0328525
-0.958586
-0.0773632
-0.642654
-0.375951
0.0707688
-0.422385
-0.0980927
-0.533891
-0.0226722
-0.521967
-0.00891513
-0.513654
0.584358
-0.592635
-0.0690856
-0.425329
-0.5122
-0.437887
0.252505
-0.292857
-0.349065
0.0160367
-0.522935
0.461579
-0.65956
-0.0258716
-0.387626
0.000197519
-0.54668
0.0188245
-0.510652
-0.00603868
-0.51625
-0.0233639
-0.132558
-0.586246
-0.209274
-0.535603
-0.532877
-0.0185015
-0.0516418
-0.53761
-0.301366
-0.0149851
0.288996
0.869893
-0.234842
0.300144
0.00805341
-0.0535823
-0.346356
-0.284695
-0.00861797
-0.129034
-0.472423
-0.687053
-0.0295156
0.000197828
-0.586712
0.121513
-0.621776
-0.575132
0.242882
-0.991438
-0.0208535
-0.551032
-0.0688963
-0.544593
0.0134374
-0.533916
-0.034868
-0.521695
-0.0225195
-0.508362
-0.00238093
-0.511076
0.191058
-0.687221
0.672158
-0.357303
-0.38394
-0.04035
-0.461781
0.0515088
-0.440924
0.000842243
-0.472268
0.0787543
-0.504954
-0.466579
0.107163
-0.41371
0.000212367
-0.580622
0.0341389
-0.529825
0.0379973
-0.524825
0.00253647
-0.528243
-0.0279984
0.0949341
-0.0988358
-0.531702
-0.542954
-0.542603
-0.0135088
0.359347
-0.406339
0.0320065
0.413502
-0.286752
-0.344299
-0.325624
-0.089333
0.208071
-0.895123
-0.551105
0.00945735
0.000227598
-0.596397
-0.00644613
-0.605872
-0.641764
0.0601854
-0.748556
-0.000269113
-0.537325
-0.00140931
-0.543452
-0.0429902
-0.525793
-0.0408314
-0.503384
-0.0173798
-0.493364
0.0130063
-0.523854
-0.188882
-0.497496
-0.494069
0.0511244
-0.0133593
-0.478689
-0.509493
-0.0243438
-0.461284
0.0344752
-0.540838
0.30676
-0.773591
0.00025154
0.000213711
-0.61063
0.0302207
-0.583767
0.088081
-0.111286
-0.375542
-0.457052
-0.0686546
-0.552052
-0.0185487
0.00471886
0.00261724
-0.539038
-0.551743
0.360358
-0.32869
0.000338407
0.000268272
-0.635157
-0.0347653
-0.418413
0.000390842
-0.325918
-0.00317771
-0.306061
-0.236257
-0.640766
-0.133745
-0.761378
0.00536283
0.000277162
-0.602037
0.00296434
-0.603474
-0.633403
-0.00539636
-0.688371
-0.0441525
-0.536163
-0.0384398
-0.549165
-0.0529979
-0.513627
-0.0641146
-0.456649
0.0143353
-0.494693
0.0282307
-0.551808
0.0543063
-0.5139
-0.467534
0.00717055
-0.514046
0.00966268
-0.481181
0.0131556
-0.464776
-0.0280948
-0.551183
-0.624779
0.0143627
-0.625071
0.000544007
-0.628612
0.0750652
-0.36302
-0.205318
-0.65048
-0.590314
-0.0303929
0.00383022
0.00332088
-0.546189
-0.566462
-0.618
-0.00680284
-0.605542
-0.0121193
-0.453631
0.000452559
-0.59075
-0.0144011
0.000514596
-0.457324
-0.0388526
-0.503465
-0.108637
-0.665874
-0.00799595
-0.753382
0.0117742
0.000327896
-0.614139
-0.0325894
-0.55911
-0.623944
-0.0420482
-0.693767
-0.0531086
-0.536052
-0.0432471
-0.559027
-0.0973195
-0.480422
-0.368773
-0.0735403
0.0840412
-0.550503
0.0266136
-0.578093
-0.0180182
-0.523976
-0.472396
-0.00509749
0.00681962
-0.482903
-0.515823
0.00921998
-0.467177
-0.0294167
-0.565014
-0.63821
0.0239615
-0.630364
-0.00730199
-0.668039
0.0926241
-0.765181
-0.0304516
0.00622441
0.00398244
-0.556396
-0.59063
-0.619336
-0.0178314
-0.606078
-0.0253766
-0.574875
-0.0154227
-0.591
-0.0294791
-0.0118903
-0.56247
0.000578747
-0.496755
-0.0381544
-0.573948
-0.00804382
-0.665827
0.0780456
-0.831428
0.0925004
-0.707007
0.000367163
-0.031126
-0.435484
-0.359096
-0.295974
-0.735815
-0.0733246
-0.560047
-0.0497566
-0.582595
0.332893
-0.617625
-0.221069
-0.157893
-0.549501
0.000387518
0.0656666
-0.589556
-0.593878
0.0161518
-0.015657
-0.537736
-0.478833
0.00296061
-0.514801
-0.00158195
-0.478361
-0.00292141
-0.465837
-0.0296307
-0.58514
-0.659721
0.0156429
-0.638117
-0.0289054
-0.69171
0.0191529
0.00257425
-0.0149352
-0.544035
-0.618508
-0.61373
-0.0422187
-0.602416
-0.0366908
-0.570493
-0.0359298
-0.593476
-0.0384185
-0.0324983
-0.549885
-0.00215589
-0.559736
0.000635226
-0.535545
-0.00249441
-0.579497
0.0851708
-0.672952
-0.12691
-0.704518
0.492505
-0.395558
-0.25484
-0.302074
-0.665723
-0.366067
0.0226577
0.108155
-0.526371
-0.0830671
-0.698049
-0.0594177
-0.606244
0.0557551
-0.607713
-0.527254
0.000410038
-0.600872
0.00738171
0.0274728
-0.600877
0.00891536
-0.49067
-0.558451
0.0251893
-0.0333393
-0.470211
-0.504547
-0.0267949
-0.472382
-0.031595
-0.612962
0.0193083
-0.490354
0.414872
0.0561736
-0.699991
0.0239245
-0.625176
-0.103721
-0.0495375
-0.0104714
-0.484026
-0.648892
-0.600069
-0.0673256
-0.58223
-0.0545296
-0.555979
-0.0734267
-0.0246011
-0.596048
-0.0822995
-0.506178
-0.00588022
-0.546161
0.0103005
-0.569401
0.000694291
-0.538733
0.0367386
-0.531065
-0.532694
-0.292504
0.152247
0.0035375
-0.663142
-0.0224786
-0.682039
0.105472
-0.771196
0.562668
-0.709353
0.00179881
0.0448115
-0.572981
-0.525879
0.000423631
-0.0388874
-0.603407
-0.00156674
-0.643565
0.02997
-0.610211
-0.601386
0.000923977
0.013751
-0.607246
0.0116404
-0.601687
-0.505825
0.0617739
-0.0301356
-0.501849
-0.453244
-0.123232
-0.379286
-0.0680931
-0.546436
0.960473
-0.645464
-0.315009
-0.368036
0.541164
-0.153819
-0.562196
-0.296194
0.426271
-0.184481
0.173082
0.696718
0.319929
0.192338
0.292666
-0.0587331
-0.322827
-0.614443
-0.947795
-0.474947
-0.576569
-0.688685
0.146413
-0.553686
-0.189529
0.0032613
-0.581549
-0.60556
-0.0639147
-0.316086
-0.371773
-0.0029198
-0.509139
0.0193019
-0.555162
-0.424451
0.135484
0.0237263
-0.592433
0.000750131
-0.502745
-0.439732
0.0609134
-0.490553
-0.195068
0.100155
-0.782194
0.0632701
-0.453667
-0.72155
-0.0606444
-0.00898782
-0.762208
-0.67353
-0.00521526
-0.072523
-0.495243
-0.531537
0.000443673
-0.599162
-0.00180005
0.0201534
-0.59359
-0.168
-0.455411
0.0259497
-0.622409
-0.604321
-0.0020019
0.0475946
-0.717374
-0.581462
-0.575681
-0.305454
-0.437183
-0.277253
1.01864
-0.0482193
0.373176
-0.50403
0.427087
-0.0704034
-0.551935
0.530858
-0.132743
-0.669087
-0.179042
-0.0184523
-0.703098
0.656844
-0.0177739
-0.657523
0.604485
0.0216253
-0.0438794
-0.58223
-0.0824137
0.779132
-0.410597
0.135584
0.467351
0.411033
0.0172172
0.397705
-0.0293516
-0.40193
-0.788194
-0.638695
0.208539
-0.430736
-0.397487
0.165329
-0.592804
0.0450653
-0.690529
-0.429444
0.179022
-0.174029
-0.0824014
0.238921
-0.472606
-0.457094
0.0359151
-0.525752
0.0453781
-0.576814
-0.364638
0.0603906
0.0287051
-0.620388
-0.442625
0.000793976
0.520225
-0.362101
-0.0948542
-0.104287
0.682708
-0.0865082
-0.13306
0.595874
-0.00916275
-0.550786
0.574416
-0.00200519
0.0375098
-0.799718
-0.708543
0.142092
-0.261262
-0.376073
-0.389914
0.000468277
-0.598115
-0.000604027
-0.0101985
-0.595922
0.0799105
-0.647551
-0.812684
-0.611063
-0.0133481
0.141868
-1.13649
-0.745048
0.984561
-0.10559
-0.188556
0.462203
-0.0017482
-0.611503
0.526927
-0.0481671
-0.727598
-0.0629475
-0.0407927
-0.660609
-0.74389
0.0495485
-0.0582201
-0.573559
0.00271209
0.637806
-0.0030025
-0.637515
-0.498525
0.0137547
-0.001834
0.455431
0.792886
0.329876
0.0793231
0.410296
0.00462673
0.434989
-0.00213736
-0.207393
-0.939585
-0.787048
0.277338
-0.509496
0.0405986
-0.588338
0.0950531
-0.54666
-0.260172
0.0745563
-0.36661
-0.0675905
-0.082153
0.111777
-0.502229
-0.503332
0.0567735
-0.537147
0.102098
-0.650207
-0.383041
0.000805913
0.0130722
-0.632666
0.423707
-0.466709
-0.051852
-0.0471904
-0.547128
-0.0526407
-0.0377622
0.566588
-0.00133436
0.637963
-0.00216205
0.11615
-0.915867
-0.853655
-0.0495995
-0.571662
0.766505
-0.66963
-0.0974268
0.000552026
0.000518183
-0.595947
-0.0016996
0.00124208
-0.597768
-0.243689
-0.426551
0.000610591
0.707354
-0.416077
-0.340876
0.0464544
-0.125529
-0.6407
-0.786948
-0.475076
-0.0433889
1.01381
0.84137
-0.0610598
-0.0747832
0.550939
-0.0257602
-0.633538
0.526807
0.0585635
-0.750204
0.0537195
0.640016
-0.639906
-0.00311203
-0.895643
0.151753
-0.697959
-0.197685
-0.567076
0.0622618
-0.269416
-0.366404
0.692617
0.10027
-0.00534197
0.00327702
-0.00335769
-0.637434
-0.432986
0.639953
0.145354
0.453851
0.0357679
0.442162
-0.00254656
0.580507
-0.0317048
-0.136965
-0.170048
-0.632572
-0.646675
0.123002
-0.5919
0.0769528
-0.570237
0.0872047
-0.522088
-0.309243
0.000758928
-0.37749
0.000655882
-0.0673782
0.0745858
-0.509437
-0.513937
0.0737343
-0.508783
0.00130495
-0.63844
-0.63526
0.00340015
0.425137
-0.477159
0.000169505
0.000457215
-0.529565
-0.000234265
-0.000739437
0.637923
-0.00129477
0.639813
-0.00195971
0.223786
-1.13965
0.727297
-0.272302
-0.698684
-0.0174115
0.163616
-0.562281
-0.587832
-0.588819
-0.00660961
-0.590813
0.00254626
0.00496847
-0.604436
-0.699533
0.000679994
0.0561343
-0.646337
-0.673594
-0.283401
0.0894962
-0.538661
-0.224429
0.399851
-0.577112
-0.715925
0.896987
-0.0131855
-0.0388363
0.425006
0.510817
0.559343
0.454466
0.822653
-0.026003
-0.00233441
0.544944
-0.0438974
-0.609179
0.526645
0.141098
-0.910895
0.355435
-0.638831
-0.00443281
0.47311
0.156672
-0.632894
-0.590843
-0.245649
-0.4837
-0.304828
0.0128612
-0.624915
-0.707542
0.2185
0.0326808
0.00365632
-0.00154991
-0.639541
-0.416469
0.542554
0.0566509
0.480883
-0.0029523
0.611599
-0.0336386
0.569846
-0.0566067
-0.031575
-0.511501
-0.555247
-0.10257
0.0483219
-0.484413
0.0553647
-0.570312
0.0635126
-0.546545
0.0692803
-0.516783
-0.636073
0.00157146
-0.636546
0.00112888
-0.0685716
0.0673342
-0.5082
-0.508774
0.00939435
-0.516872
-0.636495
0.0014548
-0.636981
0.00089279
-0.637375
0.000562994
-0.637711
0.000101933
-0.00052717
0.639435
-0.000915846
0.421406
0.049744
-0.39077
0.386644
0.160799
-0.191983
-0.947669
-0.0519127
-0.838754
-0.0417825
0.135336
-0.655834
-0.624646
-0.581786
-0.0292603
-0.533327
-0.0459126
0.045015
-0.522207
-0.752133
0.000687609
-0.484452
-0.161205
0.323693
-0.765469
-0.675633
-0.424204
-0.475859
0.85995
0.0127645
0.415481
0.405632
0.265074
0.575413
-0.508712
1.06806
0.45657
0.831368
-0.000401309
-0.0818606
0.534537
-0.051789
-0.519311
0.526402
0.134007
0.130855
-0.29473
-0.634962
-0.00541835
-0.542925
-0.094401
0.276525
-0.179182
-0.488113
0.519705
0.0555295
-0.433377
0.129316
-0.320853
0.00390678
0.0105217
-0.653969
-0.283246
0.540899
-0.00336586
0.627562
-0.0189148
0.640158
-0.103951
0.538645
-0.0607146
0.0663612
-0.593135
-0.00806655
-0.455112
-0.507949
-0.0389182
0.0200467
-0.465541
0.0390182
-0.545818
0.0533216
-0.530586
0.0615398
-0.510988
-0.636498
0.00157441
-0.636967
0.00159844
0.00968509
-0.509065
-0.00287135
-0.495643
-0.532366
0.0169482
-0.637539
0.00146428
-0.638188
0.00121189
-0.638845
0.000759813
6.2037e-05
0.412484
0.00800598
0.389093
0.0472947
-0.24137
0.140904
0.261265
0.221552
-0.186397
-0.0411853
-0.906484
-0.0344819
-0.845458
0.0117436
0.068324
-0.735902
-0.642162
-0.376224
-0.311851
0.115616
-0.446825
-0.315354
0.0936337
-0.300487
-0.787351
0.000735322
-0.443282
-0.0404823
-0.102716
-0.373843
-0.076879
-0.620266
-0.486377
-0.17765
1.04812
0.734724
0.333331
0.290065
-0.272849
0.388416
0.0702105
0.484929
0.133349
0.898635
0.820535
0.0364136
0.726612
0.0120625
0.525956
-0.0513432
-0.497912
0.52611
0.105808
-0.437326
0.0702693
-0.00544466
-0.618244
-0.00619682
0.297069
-0.104369
-0.371882
-0.527854
-0.02049
-0.0989278
-0.483586
0.00401559
0.0483344
-0.706319
0.600084
-0.00365476
0.645976
-0.0217803
0.625288
-0.00404475
0.508069
-0.0733747
0.520726
-0.055484
-0.0934219
-0.538631
-0.00725427
-0.427811
-0.476185
-0.02562
0.00964995
-0.449571
0.0321176
-0.524614
0.048867
-0.517914
-0.0168115
-0.497048
0.542548
-0.513808
-0.0271416
0.0117566
0.0242077
-0.516325
-0.0045135
-0.466922
-0.477945
-0.0343991
-0.447588
-0.0291449
0.424792
-0.0122457
-0.022036
0.390891
0.00620763
0.11482
-0.163825
0.189909
0.42338
0.225027
-0.1673
0.240984
-0.130312
0.0418683
-0.948352
0.0355853
-0.839175
-0.752517
0.000751974
-0.271671
0.0877028
-0.551934
-0.467906
0.101015
-0.454206
0.00999772
-0.413201
-0.430826
-0.0117201
0.00881947
-0.423145
0.0317428
-0.564306
-0.548056
-0.110581
0.789901
0.187906
0.58737
0.624716
0.110008
-0.468176
0.563637
0.23787
-0.0251289
0.483755
0.0814392
0.536839
-0.051152
0.481611
-0.804699
0.715487
0.101275
0.0894345
0.521221
-0.0464538
-0.509048
0.52577
0.0890866
-0.584187
0.145408
0.125855
-0.563209
-0.00670017
0.273611
-0.322499
-0.0554818
-0.565096
0.0310452
-0.0593218
-0.411488
-0.48432
-0.0197555
-0.711344
0.200876
-0.195851
-0.0690224
-0.35552
-0.0068139
0.608355
-0.00484697
0.530406
-0.0263821
0.507521
-0.06017
-0.0490561
0.514793
-0.034769
-0.529482
-0.00881944
-0.409342
-0.452887
-0.0229519
0.00632859
-0.432948
0.0306689
-0.506415
-0.0140574
-0.520668
-0.464143
-0.0374186
0.609107
-0.494712
-0.141537
0.104539
0.00420667
-0.36659
-0.457817
-0.0712944
-0.434359
-0.0526023
0.416124
-0.0374787
-0.0402708
0.297587
0.132
-0.159963
0.309249
0.0406224
0.211519
-0.146455
0.216048
-0.142364
0.230356
-0.087057
0.193168
-1.14152
0.0429462
-0.688953
-0.710301
0.000729742
-0.426439
-0.00363513
-0.122847
0.0875768
-0.516664
-0.489738
0.0645742
-0.508783
0.00118909
-0.405571
-0.423944
-0.0109203
0.0516267
-0.528356
-0.531198
-0.0130466
0.759815
0.424795
-0.107342
0.472448
0.055607
0.557094
0.0369009
0.525341
0.59958
0.0251361
0.555991
0.117654
-0.277573
0.422324
0.0931193
0.0382728
0.526922
-0.00172752
0.487414
0.286285
-0.082248
-0.0267355
0.626316
-0.82042
0.729093
0.192601
0.126845
0.0480113
0.796662
0.518281
-0.0389646
-0.400054
0.525436
-0.0362957
0.622534
0.232414
0.367889
-0.684681
0.112886
-0.357944
-0.0238765
-0.500013
0.0467382
-0.00700448
-0.424239
-0.544984
-0.00638672
-0.00565097
-0.54511
-0.146385
-0.0416072
0.510832
0.547487
-0.0219278
0.534119
-0.0529795
-0.0521513
0.506774
-0.0378553
-0.514579
-0.0100871
-0.392926
-0.432305
0.0258772
-0.0268754
-0.43195
-0.340159
-0.119777
0.00892957
-0.529402
-0.518093
-0.0399931
0.506744
-0.388755
-0.259525
-0.200005
0.633419
-0.318934
-0.367087
0.173369
-0.251056
0.511164
0.190194
0.151959
0.421278
-0.169136
0.219948
-0.150355
0.207912
-0.11992
-0.937465
-0.204056
0.305847
-0.731497
-0.263303
-0.405074
0.000620664
-0.425076
-0.000634065
-0.42439
-0.00318959
-0.0836674
0.0755867
-0.508583
-0.508831
-0.00262162
-0.504972
-0.417811
0.00131946
0.0558333
-0.508603
-0.51322
-0.870494
-0.0669707
-0.887644
0.0171499
0.0185352
0.633938
-0.0077966
0.535851
0.054677
0.539318
0.0368216
0.526792
0.552875
0.028252
0.477437
0.0625411
0.387912
-0.00850718
0.0400226
0.485172
0.407323
-0.00215677
-0.0497577
0.575897
0.684394
-0.0580784
0.746017
-0.061623
0.906465
-0.160448
0.362534
-0.343713
0.945397
0.0392681
0.68514
0.452858
0.945109
0.131908
0.683289
-0.516012
0.504262
-0.0298566
-0.0295406
0.525149
-0.193555
0.169377
0.748177
-0.518133
0.131005
-0.373097
0.00814913
-0.423192
0.0456912
0.545786
-0.0039497
-0.00571094
0.435864
-0.19206
-0.390189
-0.301281
0.219012
0.0471357
-0.042146
0.499272
0.505816
0.560938
-0.0487466
-0.085534
0.539329
0.0313622
-0.520064
0.0241095
-0.447485
-0.395692
0.0147321
-0.0348079
-0.411874
-0.511258
-0.126612
0.00338037
-0.572776
0.471581
-0.557736
-0.239682
0.53853
-0.309738
-0.0385978
0.323402
0.25613
-0.14459
0.213823
-0.163011
0.207228
-0.149671
-0.839779
-0.0957734
-0.668837
0.000459825
-0.424755
0.000300542
-0.42466
-0.000364096
-0.422411
0.00141108
0.0122371
-0.0265651
-0.494255
-0.499215
-0.508327
0.00467421
0.0343727
-0.516231
-0.500795
0.523466
-0.325294
0.164361
-0.84851
-0.0582401
-0.307894
0.0595933
0.566548
0.0523632
0.538165
0.0494727
0.526667
0.0893543
0.47746
0.48538
0.0203087
0.432915
0.0175378
0.401399
-0.00258336
0.0315221
0.451493
0.46714
-0.0315174
-0.207907
0.725726
-0.104375
0.363607
-0.407558
0.209589
-0.127325
0.667541
-0.00343837
-0.599657
-0.151613
-0.0925637
0.394547
0.682471
0.431327
0.416079
0.588437
0.154445
-0.0851496
0.685853
-0.521718
0.485481
0.00637996
-0.0261097
0.0297371
0.524885
0.486811
-0.0434763
-0.392373
0.100187
-0.367516
0.0401097
0.598807
-0.0418192
-0.202907
0.282831
-0.271984
-0.252481
0.234031
-0.321522
0.148162
-0.0990522
0.519334
-0.0084885
0.408708
0.575518
-0.084936
0.0268898
-0.532222
0.0401968
-0.484301
-0.390303
-0.0453851
-0.0721965
-0.294292
0.671498
-0.541344
-0.369836
-0.0278896
0.245347
-0.479682
0.162257
-0.458254
0.469769
-0.252237
0.260109
-0.190877
0.216128
-0.171911
-0.764791
0.000179716
-0.42475
0.000454476
-0.42492
0.000560667
-0.424245
0.00146984
-0.527626
0.0207103
0.00412241
-0.011745
-0.486633
-0.490419
0.0523944
-0.541735
-0.460146
-0.436389
0.292856
-0.822837
-0.000193805
-0.0794832
0.144266
0.523654
0.539428
0.0612385
0.526399
0.140193
0.475828
0.0746776
0.434305
0.446754
0.0064698
0.421925
-0.00298787
0.0168811
0.432028
0.42062
-0.00538368
0.29718
0.019066
0.604568
0.0562188
-0.315519
0.0887191
-0.424693
-0.0181503
0.582167
0.018963
-0.523641
-0.052665
-0.0340382
0.241962
0.594954
0.572891
0.400101
0.33912
0.190864
0.524726
0.438072
0.0402506
-0.630725
0.378801
0.258305
-0.13195
0.47984
-0.144516
-0.0724188
-0.0529407
0.52546
-0.339799
0.0724698
0.58449
-0.0507907
0.242695
0.0698109
-0.221892
0.212107
-0.262417
0.174926
-0.297165
0.105527
-0.660974
0.4131
0.197084
-0.226576
0.269712
-0.0875795
-0.0175831
-0.560023
0.146238
-0.658429
-0.316262
-0.137008
-0.473546
0.247653
-0.455232
0.268309
-0.278222
0.193661
-0.383606
0.233416
-0.225544
0.219784
-0.194533
-0.424824
0.000253947
-0.425177
0.000710951
-0.425132
0.00144719
-0.557161
0.0310048
-0.0496458
-0.0710449
-0.365942
-0.519354
0.143594
-0.702913
-0.387596
-0.52922
-0.000760866
-0.424834
-0.000183671
-0.0745417
0.525777
0.526125
0.166619
0.499973
0.18199
0.368516
0.0308708
0.420315
0.431762
-0.00336676
0.00502318
0.424017
0.43006
-0.00368215
0.453018
-0.0038918
0.513131
-0.00389395
-0.439107
-0.0013938
-0.45517
-0.0020869
0.535807
-0.00371307
-0.505081
-0.00275469
-0.00331199
0.238915
0.524839
0.525094
-0.203386
0.596162
-0.288918
0.516722
0.0419088
0.0615744
0.418393
0.101697
-0.36528
0.479069
-0.189628
0.199509
0.515579
-0.358122
0.20604
-0.236653
0.186342
-0.257248
0.135009
-0.196076
0.251055
-0.245075
0.246082
-0.0873055
0.358953
-0.138311
-0.55872
-0.0242655
-0.386511
-0.128399
-0.369412
0.116002
-0.377572
0.228645
-0.273451
0.158327
-0.313289
0.217588
-0.223347
-0.425359
0.000436543
-0.425658
0.00123697
-0.556066
0.000352257
-0.095517
-0.658021
-0.583867
-0.162853
-0.678371
-0.424766
-0.000829564
-0.425463
-8.0064e-05
0.179381
0.513363
0.51553
0.173888
0.508076
-0.00405319
0.40344
0.0059499
0.419388
0.421549
-0.000898288
0.421217
-0.00335062
0.421625
-0.00429963
0.422293
-0.00456148
-0.424527
-0.00163251
-0.424128
-0.00248538
0.422974
-0.00439422
-0.423599
-0.00328465
-0.00393678
0.208106
0.516498
0.52956
-0.250831
0.481713
-0.343872
0.277011
0.10877
0.136096
0.135958
0.444809
-0.127436
0.317141
-0.188442
0.198128
0.505893
-0.232951
0.202338
-0.227571
0.156666
-0.209342
0.227446
-0.216527
0.253267
-0.136054
0.27848
-0.21346
-0.47366
0.00441269
-0.274922
-0.0970599
-0.267939
0.0853571
-0.304602
0.192194
-0.248056
0.142193
-0.263288
-0.426015
0.000793905
-0.514761
-0.0400677
-0.105066
-0.715808
-0.68858
-0.492833
-0.398998
-0.425431
-0.000861636
-0.426238
0.000142604
0.179717
0.507533
0.506805
-0.0172702
0.521293
-0.00482363
0.414213
0.419989
-0.00149864
0.420849
-0.00421139
0.421777
-0.00522776
0.422671
-0.00545504
-0.425208
-0.00185541
-0.424792
-0.00290154
0.42349
-0.00521298
-0.424209
-0.00386725
-0.00465586
0.212534
0.502092
0.491262
0.133703
0.483968
-0.398461
0.379795
0.182443
-0.115351
0.296438
0.0171273
-0.00302411
0.49179
-0.204126
0.178893
-0.183723
0.207043
-0.161077
0.230621
-0.127631
0.245033
7.42125e-05
-6.0426e-05
6.30659e-06
-2.00538e-05
-0.190803
-0.379916
0.00412761
-0.193692
-0.0748471
-0.188964
0.0716873
-0.234096
9.48395e-05
0.000135635
-0.000156239
-0.510885
-0.00308236
-0.401814
-0.326834
-0.119654
-0.246267
-0.349887
-0.275347
-0.33714
-0.225984
-0.363817
-0.426254
-0.000845423
-0.499434
-0.0113084
0.0244383
0.499495
0.514701
-0.0224183
0.538887
0.418383
-0.00566885
0.420584
-0.00641191
0.422082
-0.00672624
0.423162
-0.00653484
-0.426022
-0.00208695
-0.425554
-0.00336948
0.424107
-0.00615725
-0.424913
-0.00450831
-0.0054625
0.0692577
0.555708
0.568326
0.156845
0.509565
-0.0614327
0.325877
-0.0864549
0.255263
-0.0258735
0.231742
0.362458
0.0351388
0.430777
-8.46819e-06
9.37862e-05
-0.000145701
-4.65022e-05
5.28543e-05
-3.50551e-08
-0.154087
-0.300676
0.0031141
-0.125119
-0.0618835
-0.123967
9.57736e-06
0.000540265
-0.000454989
-2.53176e-05
0.000114465
0.00130323
0.00363753
-0.00493115
0.164473
-0.569369
-0.408629
-0.303142
-0.322091
-0.247652
-0.315472
-0.207153
-0.310751
-0.494361
-0.00591874
-0.477791
-0.102887
0.0432909
0.491342
0.535574
0.542821
-0.00960232
0.498825
0.0375845
0.451363
0.0407357
0.423188
0.0216397
-0.487131
-0.00931649
-0.451296
-0.0392047
0.41328
0.00375088
0.421772
-0.0139546
-0.034032
0.315115
0.397438
0.100711
0.347422
-0.0221338
0.261556
0.256946
0.289911
0.033174
0.0986349
0.230649
0.110114
0.353837
-1.25037e-05
-8.00689e-05
8.41348e-05
9.78446e-05
4.88184e-05
-0.000104281
0.000106867
-2.59203e-06
-0.132816
-0.229744
-1.73911e-06
0.000516691
-7.72827e-05
8.74941e-05
0.0016297
0.00085094
-0.00117736
0.000976671
0.00265914
-0.423043
-0.288728
-0.284008
-0.285735
-0.240818
-0.281806
-0.182709
-0.260858
-0.489688
0.00597871
-0.175493
-0.350437
0.106409
0.495047
0.632381
0.485381
0.184585
0.432055
0.0940617
0.406676
0.0470186
-0.550908
0.0519036
-0.432513
-0.157599
0.397052
0.0133744
0.401728
-0.0186307
-0.064817
0.176548
0.321601
0.0620947
0.263193
0.135664
0.219917
0.190652
0.275807
0.128032
0.238281
0.207112
0.274757
5.49056e-05
-0.000555595
0.000488206
9.01529e-05
-7.23658e-05
0.000138337
1.73887e-05
-0.00012601
0.000126905
-3.46558e-06
-0.00160295
-0.0048086
0.00646654
0.00188297
0.000714752
-0.000967994
-7.54444e-06
0.000446966
-9.85216e-05
6.00244e-05
0.00123485
0.00059281
0.000749344
0.00190226
-0.303872
-0.268864
-0.270016
-0.256538
-0.217003
-0.247512
-0.166074
-0.313291
-0.510532
-0.40243
-0.0561983
0.427723
0.274436
0.416058
0.19625
0.394945
0.115175
0.378479
0.0634843
-0.29615
0.0732576
-0.179538
-0.364023
-0.0897264
0.36888
0.0229733
0.365382
-0.0151321
-0.0634579
0.125419
0.258276
0.170352
0.240217
0.15382
0.247407
0.182685
0.225947
0.237734
0.219708
6.31406e-05
-0.00052857
0.000125608
-5.95922e-05
0.000146922
-2.59907e-06
-0.000128092
0.000128854
-4.19632e-06
-0.00211597
-0.000934793
0.00144792
-0.00122992
-0.0035155
0.00217118
0.00093145
-0.00121962
0.00143454
0.000515073
-8.40265e-06
0.000356856
-0.000103957
3.59161e-05
0.000950488
0.000391731
0.000577125
0.00131674
-0.303853
-0.235027
-0.24988
-0.223661
-0.42006
-0.197084
-0.355288
-0.12097
-0.212815
-0.0692149
0.311501
0.200669
0.346317
0.161434
0.3484
0.113092
0.341981
0.0699038
-0.291243
-0.10111
-0.303101
-0.0778679
0.33311
0.0318445
0.322838
-0.00486062
-0.0437208
0.162832
0.231205
0.182202
0.206577
0.223653
0.178257
-0.00259481
-0.000953914
0.00143262
5.02858e-05
-0.00045321
0.00013499
-4.76284e-05
0.000139292
-1.29952e-05
-0.000120411
0.000119923
-3.65518e-06
-0.00159214
-0.000572583
-0.000954314
-0.00251087
0.0024046
0.000682162
-0.000915585
0.00166779
0.000698251
0.00109942
0.00036611
-7.16452e-06
0.000260078
-0.000100623
1.61727e-05
0.000731917
0.000236968
0.00045036
0.000859217
-0.289877
-0.19503
-0.314111
-0.172851
-0.283404
-0.151677
-0.230477
-0.122143
0.268686
0.155636
0.297043
0.133078
0.306629
0.103506
0.305411
0.0711218
-0.242939
-0.0886484
-0.264765
-0.0560419
0.297551
0.0397042
0.284563
0.00812771
-0.0239225
-0.00335846
-0.00178995
0.00255367
-0.00192982
-0.000616215
3.37582e-05
-0.000351946
0.000129605
-3.78889e-05
0.000123464
-1.64677e-05
-0.000105523
0.000105305
-3.3753e-06
-0.00120541
-0.000321486
-0.000749039
-0.00172805
0.0026065
0.00095971
-0.00116156
0.00185362
0.000496339
0.00129423
0.000503523
0.000848976
0.000249075
-5.11518e-06
0.000164593
-9.25341e-05
3.23726e-06
0.000568517
0.000119069
0.00035281
0.000501295
-0.00444102
-0.00303796
0.00412043
-0.00250834
-0.00121159
-0.00143232
-0.000389315
1.94906e-05
-0.000241778
0.000114587
-2.89204e-05
0.000101037
-1.2125e-05
-7.92729e-05
7.58978e-05
-0.000916875
-0.000153659
-0.000589653
-0.0011189
0.002568
0.000145181
-0.000106703
0.00204687
0.00076651
0.00143317
0.000357361
0.00100281
0.000349715
0.000653621
0.000163754
-2.90307e-06
7.49928e-05
-7.60355e-05
0.000436871
3.53961e-05
0.00027683
0.000221564
-0.00574678
-0.00496627
0.00627222
-0.0034064
-0.00213981
-0.00186027
-0.000783855
-0.00107224
-0.000233936
9.67521e-06
-0.000136775
9.11967e-05
-1.89932e-05
6.37729e-05
-0.000696988
-4.65284e-05
-0.000466098
-0.000643124
0.000828876
-0.00662348
0.00836264
0.00203422
0.000157815
0.00160936
0.000590413
0.00111263
0.000247562
0.000779405
0.000224223
0.000503604
9.67249e-05
-1.04261e-06
0.000325719
-1.29666e-05
-0.00779923
-0.011809
0.0138623
-0.00458683
-0.00378665
-0.00256865
-0.00143126
-0.00137004
-0.000486099
-0.000794149
-0.000136553
2.65593e-06
-4.81496e-05
4.47798e-05
-0.000528955
1.60122e-05
-0.000364044
-0.000276426
-0.000245811
-0.0028806
0.00395537
0.000583468
-0.00517267
0.00161854
0.000148566
0.0012744
0.000428672
0.000861976
0.00016474
0.000600769
0.000127487
0.000374556
4.75038e-05
0.000207554
-0.000220521
-0.00667668
0.00460675
-0.00573208
-0.00650119
-0.00989439
-0.0036105
-0.00274586
-0.00191007
-0.00089117
-0.00100749
-0.000274125
-0.000591185
-7.39911e-05
-3.36979e-06
-0.000384897
3.64493e-05
-0.000480803
-0.000164984
0.000399929
-0.000272128
-0.00202498
0.000392594
-0.00394662
0.00128743
0.000135529
0.00100585
0.000285161
0.000669721
9.54497e-05
0.000453825
4.87921e-05
0.000255059
-0.00638742
-0.000642358
0.000352308
-0.00558878
0.00368953
-0.00542956
-0.00807495
-0.00282164
-0.001835
-0.0013838
-0.000513434
-0.000728561
-0.000138612
-0.000429144
-2.93355e-05
-0.000243346
0.000279796
-0.000466546
4.821e-05
-6.24506e-05
-0.000415063
-2.20331e-05
-0.00027894
-0.00135351
0.000248807
-0.00290796
0.00101986
0.000121188
0.000787707
0.000167696
0.000504274
4.45468e-05
0.00030385
-0.00466312
0.00809174
-0.00981685
-0.00540724
-0.000822447
-0.00466436
0.00291632
-0.0045029
-0.00639408
-0.00216756
-0.00105647
-0.000973828
-0.00026625
-0.000517476
-5.26084e-05
-0.000272686
-0.000282128
0.000728278
-0.000912688
-0.000400757
3.39097e-05
-0.00035213
5.12053e-05
-0.000271344
-0.000833334
0.000139823
-0.00202746
0.000806066
0.000102362
0.000605462
6.72201e-05
0.000348398
-0.00293289
0.00686777
-0.00859789
-0.00387854
0.00656073
-0.0045558
-0.000924106
-0.00387448
0.00228508
-0.00375023
-0.00480749
-0.00160377
-0.000433641
-0.000661668
-0.000119608
-0.000325289
2.41923e-06
0.00100983
-0.0012944
-0.000237776
0.000565321
-0.000340948
2.26958e-05
-0.000294476
7.43444e-05
-0.000253439
-0.000440478
5.48154e-05
-0.00127556
0.00064045
6.67054e-05
0.000415617
-0.00145645
0.00432147
-0.00579715
-0.00236154
0.00535189
-0.0031999
0.00519965
-0.00383825
-0.000959233
-0.00321906
0.00172087
-0.00312664
-0.0032799
-0.00110117
-3.30305e-06
-0.000444914
0.000294606
0.00103359
-0.0013258
1.96686e-06
0.000770103
-0.000198831
0.000423258
-0.000288382
1.66175e-05
-0.000242865
6.40061e-05
-0.000227342
-0.000158867
-2.51722e-05
-0.000609222
0.000482323
-3.31361e-06
0.00487284
-0.00632607
-0.00119243
0.0031526
-0.00189142
0.00404735
-0.0026526
0.00401271
-0.00322532
-0.000917322
-0.00265964
0.00120996
-0.00262943
-0.0017452
-0.000448203
0.000486103
0.000761774
-0.000953307
0.000247394
0.000788162
1.56172e-06
0.000569694
-0.000165227
0.000300126
-0.0002405
1.4034e-05
-0.000198879
3.59047e-05
-0.000190973
6.30769e-06
-0.0001269
0.00140336
0.00474964
-0.00615675
-3.94111e-06
0.00368471
-0.000975175
0.00223655
-0.00150808
0.00290412
-0.00217355
0.00293753
-0.00274257
-0.000789532
-0.00214478
0.000650948
-0.00219368
0.000494407
6.32717e-06
-1.46852e-05
0.000417472
0.000591685
0.000206655
0.000583113
1.22918e-06
0.00040327
-0.000136579
0.000196425
-0.000198288
1.31175e-05
-0.000159519
4.89497e-06
-0.000120591
0.0027859
0.00405329
-0.00543642
0.00115484
0.00359043
-2.74865e-06
0.00271245
-0.000797552
0.00152636
-0.00119939
0.00195327
-0.00177986
0.0019447
-0.00234184
-0.000524811
-0.00154255
0.000254209
-0.000211719
0.000451921
0.00042392
-1.39556e-07
0.000354345
0.000443961
0.000171611
0.000412743
9.57593e-07
0.000265576