/*--------------------------------*- C++ -*----------------------------------*\
  =========                 |
  \\      /  F ield         | OpenFOAM: The Open Source CFD Toolbox
   \\    /   O peration     | Website:  https://openfoam.org
    \\  /    A nd           | Version:  8
     \\/     M anipulation  |
\*---------------------------------------------------------------------------*/
FoamFile
{
    version     2.0;
    format      ascii;
    class       volVectorField;
    location    "19000";
    object      U;
}
// * * * * * * * * * * * * * * * * * * * * * * * * * * * * * * * * * * * * * //

dimensions      [0 1 -1 0 0 0 0];

internalField   nonuniform List<vector> 
4109
(
(10.1197 0.000524248 0)
(10.1223 0.000554459 3.87681e-21)
(10.124 0.00250716 0)
(10.1218 -0.000216512 -8.3526e-21)
(10.1242 0.00150917 4.01667e-22)
(10.1269 0.00237459 6.68576e-23)
(10.1278 0.00251666 -2.46713e-22)
(10.1334 0.00401999 0)
(10.1288 0.00239396 0)
(10.123 0.000387667 -2.87549e-21)
(10.125 0.00129597 3.49642e-21)
(10.1338 0.00315013 1.53912e-21)
(10.1364 0.00798174 2.24826e-21)
(10.1368 0.00429937 -1.1143e-22)
(10.1346 0.00331779 2.37842e-21)
(10.13 0.00222748 -8.97287e-22)
(10.1243 0.000617127 5.53353e-22)
(10.1267 0.00160857 6.48829e-23)
(10.1356 0.00324079 0)
(10.1404 0.00370191 -3.23768e-21)
(10.159 0.00816942 1.84892e-21)
(10.1427 0.00842906 -5.07731e-21)
(10.1466 0.00601642 -5.76198e-22)
(10.1312 0.00229734 -2.24694e-21)
(10.1285 0.00176067 9.16328e-21)
(10.1256 0.000843235 3.10089e-21)
(10.1329 -0.00211462 0)
(10.1362 -0.00227734 8.96695e-22)
(10.1404 -0.00216492 -6.49538e-23)
(10.136 0.00326618 0)
(10.1419 0.00324135 0)
(10.1465 0.00465168 3.92646e-21)
(10.2209 -1.4643e-05 -1.01489e-21)
(10.1507 0.00705734 -7.10514e-21)
(10.1489 0.00602716 0)
(10.132 0.00234469 -1.61796e-22)
(10.1279 0.0015436 -9.10357e-21)
(10.1266 0.000753478 -5.052e-21)
(10.1328 -0.00216515 -1.43282e-21)
(10.1249 -0.00161301 0)
(10.1421 -0.0030313 -1.33937e-22)
(10.1392 -0.00332709 4.89615e-22)
(10.1418 -0.00892349 -1.50499e-22)
(10.1365 0.0033501 -2.27579e-21)
(10.1421 0.00324179 0)
(9.48074 0.0260984 7.08037e-22)
(10.135 -0.000366734 3.80713e-22)
(10.1489 0.00467315 -1.41302e-22)
(10.1496 0.00403916 6.77244e-22)
(10.2167 -0.00104803 4.62792e-21)
(10.1535 0.00534634 4.26052e-21)
(10.1308 0.00203304 -1.33595e-22)
(10.1292 0.0018537 -8.84572e-21)
(10.1281 0.0010261 1.98727e-21)
(10.1329 -0.00249835 -9.37896e-22)
(10.1266 -0.00185964 0)
(10.119 -0.000356073 0)
(10.1416 -0.00526654 1.24485e-22)
(10.143 -0.00416459 1.53654e-22)
(10.1389 -0.00347013 0)
(10.2401 -0.00275786 -1.44513e-22)
(8.88599 0.0142881 0)
(10.1362 0.00331288 -7.77301e-21)
(10.1427 0.00324425 0)
(10.1487 0.00440343 6.07733e-22)
(10.2461 -0.000856 -3.86442e-22)
(9.74636 0.0281035 1.58289e-20)
(10.15 0.00376323 0)
(10.1508 0.00632565 -9.58003e-22)
(10.2301 -0.000410849 -5.83805e-22)
(10.1298 0.00127294 2.66412e-21)
(10.1309 0.00227159 5.90133e-21)
(10.1355 0.00388486 0)
(10.1319 0.00141301 1.20411e-20)
(10.1331 0.00226782 -1.79746e-20)
(10.1339 -0.00284272 9.45938e-22)
(10.1284 -0.00195059 0)
(10.1266 -0.00176009 0)
(10.1205 -0.000466315 0)
(10.2207 0.00676852 1.69571e-22)
(10.1468 -0.00463712 7.99124e-22)
(10.1416 -0.00485367 -7.34112e-22)
(10.1451 -0.00360114 8.74811e-23)
(10.1395 -0.00389119 0)
(10.3543 0.0186199 1.21026e-21)
(10.258 1.33264e-05 0)
(9.37365 -0.0429282 0)
(9.21595 0.0310661 -3.0874e-20)
(8.84228 0.0202504 -1.0517e-21)
(10.1348 0.00273662 3.03999e-21)
(10.1371 0.00330015 7.77617e-21)
(10.1432 0.00334122 0)
(10.1492 0.00450318 -3.18812e-22)
(10.1506 0.00351923 -1.98824e-22)
(10.2875 -0.00495097 0)
(9.99271 0.0122868 0)
(10.1483 0.00595245 0)
(10.2206 0.000554541 3.0964e-22)
(10.1372 0.00394766 6.34421e-22)
(10.1343 0.00322477 -1.18731e-20)
(10.1318 0.00249216 1.35203e-20)
(10.1365 0.00384751 8.54114e-21)
(10.1383 0.0045232 5.44076e-21)
(10.1347 0.00274242 6.33445e-21)
(10.1342 0.00122944 2.47078e-21)
(10.1347 -0.00332785 3.95321e-22)
(10.1305 -0.00263096 3.498e-22)
(10.1263 -0.0015404 0)
(10.1212 -0.000624351 2.82475e-21)
(10.2091 0.00183183 1.55343e-22)
(10.3295 0.00917243 0)
(10.1451 -0.0053607 -3.19711e-22)
(10.1455 -0.00427847 -3.13147e-23)
(10.1454 -0.00402459 0)
(10.1399 -0.00420302 0)
(9.01876 -0.0380101 -1.43717e-20)
(10.1706 -0.0132039 -1.07998e-21)
(9.90987 -0.0362002 1.72604e-20)
(9.56751 0.0395214 -7.21395e-21)
(9.04843 0.0114504 1.10078e-20)
(8.75679 -0.00318507 8.6213e-21)
(10.2989 0.00206953 1.3787e-22)
(10.1362 0.00331246 -1.38994e-20)
(10.1394 0.00391979 -2.40221e-21)
(10.1441 0.00368726 -7.6783e-22)
(10.1495 0.00479695 0)
(10.1514 0.00387818 6.3341e-22)
(10.1472 0.00612063 -2.02086e-21)
(10.0767 0.00441187 3.38597e-21)
(10.3091 -0.00161158 0)
(10.2078 0.000918351 2.35639e-22)
(10.1404 0.00522304 7.03651e-21)
(10.1373 0.00406449 -4.41955e-21)
(10.1387 0.00472791 -8.35389e-21)
(10.1409 0.00583308 5.17558e-22)
(10.1372 0.00155672 0)
(10.1375 0.00380008 -5.02234e-21)
(10.1355 -0.00386056 -7.73168e-22)
(10.1307 -0.00281249 0)
(10.1268 -0.00171205 1.0664e-21)
(10.1225 -0.000758641 -2.82446e-21)
(10.2107 -0.00125629 -2.37546e-23)
(10.3261 -0.0030522 0)
(10.143 -0.00662391 0)
(10.1466 -0.00443194 -3.0096e-22)
(10.1457 -0.00420239 1.50079e-22)
(10.1404 -0.0046931 0)
(9.13904 -0.0346215 -8.2313e-21)
(9.85907 -0.0391123 5.31922e-22)
(9.08638 0.00959446 0)
(9.64725 0.0186299 -3.79572e-21)
(8.76042 0.0225419 0)
(10.2683 -0.00129106 -1.28732e-22)
(10.1399 0.00439113 1.10824e-20)
(10.1395 0.00392024 2.40203e-21)
(10.145 0.00418467 7.3005e-22)
(10.1502 0.00562613 2.36601e-21)
(10.1514 0.00441493 1.11075e-21)
(10.1468 0.00697175 1.23856e-21)
(10.2021 0.00308934 -3.94223e-23)
(10.1214 0.00212837 -3.46085e-24)
(10.3213 -0.00264502 -2.35458e-22)
(10.1441 0.00620417 1.97754e-21)
(10.1402 0.00452686 0)
(10.1416 0.00627534 -3.21338e-22)
(10.1449 0.00726961 -1.70632e-21)
(10.1426 0.00640084 -2.12496e-22)
(10.141 0.00538797 0)
(10.1408 0.0017826 0)
(10.1365 -0.00456963 2.96956e-22)
(10.132 -0.00341324 1.15534e-22)
(10.1281 -0.00208692 -2.30214e-21)
(10.1232 -0.000649282 -4.76729e-22)
(10.2068 -0.00457482 -1.97253e-23)
(10.3266 -0.00412912 0)
(10.1409 -0.00766793 6.16031e-22)
(10.1483 -0.00454931 -1.47199e-22)
(10.1457 -0.00488642 -5.9461e-22)
(10.1413 -0.00561003 -3.63826e-22)
(9.77438 -0.0296348 -5.55207e-22)
(8.88283 -0.0128293 0)
(9.70549 0.0164754 4.03583e-24)
(9.0961 0.00601864 4.70721e-22)
(8.76182 0.0207213 1.06695e-22)
(10.286 0.00326032 1.77128e-22)
(10.1456 0.0044419 -2.54746e-23)
(10.1462 0.0048601 2.54662e-23)
(10.1519 0.00622098 -1.22709e-21)
(10.1479 0.00758806 -1.99746e-21)
(10.1549 0.00410908 -8.85591e-22)
(10.1906 0.00624339 1.064e-21)
(10.1074 0.00499052 -2.27001e-22)
(10.3172 0.00078108 1.3675e-22)
(10.1469 0.0053614 -9.53728e-22)
(10.1477 0.00636565 4.9903e-22)
(10.146 0.00829863 -5.00902e-22)
(10.1487 0.00754873 -6.87495e-22)
(10.1477 0.00932777 4.96898e-22)
(10.1461 0.00770714 2.48807e-22)
(10.1421 0.00501486 1.87743e-21)
(10.1449 0.000844276 0)
(10.1378 -0.00529129 -6.33098e-22)
(10.1332 -0.00388061 3.06955e-22)
(10.1295 -0.00251134 1.97497e-21)
(10.1248 -0.000893505 3.7323e-22)
(10.1929 -0.00628 -3.4633e-22)
(10.3171 -0.00337458 -5.87482e-22)
(10.1398 -0.00785625 3.88635e-22)
(10.1495 -0.00533486 2.16466e-23)
(10.1463 -0.00649591 8.6913e-22)
(10.1428 -0.00686362 0)
(9.7613 -0.0191538 -1.31064e-21)
(8.86916 -0.00636937 6.33433e-22)
(9.07552 -0.00155558 0)
(9.68094 0.0117901 5.66022e-23)
(8.75447 0.0197219 -7.36904e-22)
(10.313 0.0116692 1.9465e-22)
(10.1528 0.00532813 0)
(10.1531 0.00567042 -9.37246e-22)
(10.1566 0.00420877 -3.0501e-21)
(10.1737 0.0130567 2.2166e-21)
(10.1067 0.00388921 1.52902e-24)
(10.3164 0.00249842 -4.71187e-22)
(10.1533 0.00704722 1.12043e-21)
(10.1536 0.00847943 2.09357e-21)
(10.1501 0.0088773 2.05833e-21)
(10.1543 0.0102009 -1.4293e-21)
(10.152 0.0101459 -1.04826e-21)
(10.1498 0.0104247 0)
(10.1473 0.00744107 -2.114e-21)
(10.146 0.00574278 -2.15718e-21)
(10.1494 0.000836569 0)
(10.1392 -0.00591767 -2.90594e-21)
(10.1345 -0.00422884 7.60913e-21)
(10.1312 -0.00287876 3.37937e-21)
(10.1263 -0.000970279 -6.37108e-22)
(10.1769 -0.0077604 -2.50561e-22)
(10.3019 -0.00404538 1.59794e-22)
(10.1509 -0.00736095 -7.56434e-22)
(10.1405 -0.00800218 1.02574e-21)
(10.1407 -0.00630816 0)
(10.1483 -0.00888092 0)
(10.1446 -0.00788191 0)
(9.8231 -0.0166323 2.88487e-22)
(8.87945 -0.00896478 4.83062e-22)
(9.68284 0.00520684 5.30378e-23)
(9.07975 -0.00893995 6.5824e-23)
(8.76073 0.0212525 -6.4559e-23)
(10.3285 0.0174207 -4.86101e-22)
(10.1584 0.00308357 0)
(10.1566 0.00473837 4.96919e-22)
(10.1652 0.0165058 7.45314e-22)
(10.1063 0.00382153 -1.11439e-21)
(10.3181 0.00806105 5.793e-22)
(10.1571 0.00685701 -3.40135e-22)
(10.1585 0.00753768 -2.72575e-22)
(10.1553 0.0119697 -4.01625e-22)
(10.1598 0.0101002 0)
(10.1567 0.0139858 0)
(10.1542 0.0113763 -3.23204e-22)
(10.1523 0.0113641 2.73204e-21)
(10.1505 0.00816552 -1.12775e-20)
(10.1503 0.00586139 0)
(10.1538 0.000958212 0)
(10.1372 -0.0050289 4.09833e-21)
(10.1344 -0.00404932 -5.5608e-21)
(10.1283 -0.00111103 2.36837e-21)
(10.1395 -0.00566682 4.10195e-21)
(10.1526 -0.010429 1.87055e-21)
(10.279 -0.00503065 -3.31554e-21)
(10.1513 -0.00928897 -7.12091e-23)
(10.1429 -0.00689626 0)
(10.1463 -0.00853846 0)
(10.1507 -0.0100346 -5.74582e-22)
(8.88511 -0.00586626 2.9376e-22)
(9.86047 -0.0142352 5.12307e-22)
(9.08965 -0.0249101 8.07507e-22)
(9.68728 -0.00845194 -7.78715e-22)
(8.7663 0.0185282 0)
(10.3381 0.0272663 1.05491e-21)
(10.0158 -0.0174841 1.28209e-19)
(10.1675 0.0158633 0)
(10.1636 0.00997269 -2.37288e-22)
(10.1129 0.00561106 -1.49805e-20)
(10.3296 0.00658628 -4.26223e-21)
(10.1529 0.013011 1.47717e-21)
(10.1558 0.0114629 -4.63635e-22)
(10.1612 0.0120504 2.90805e-21)
(10.154 0.016679 4.60298e-22)
(10.1632 0.0145054 -8.09264e-23)
(10.1585 0.0158278 -1.12321e-22)
(10.1568 0.0125604 0)
(10.1552 0.0122783 -6.11236e-21)
(10.1543 0.00894831 2.27987e-20)
(10.1549 0.00632617 0)
(10.1556 0.0043025 7.05776e-21)
(10.1572 -0.000647275 0)
(10.129 -0.000618684 0)
(10.135 -0.00351863 2.4009e-21)
(10.1319 -0.00246707 -3.65305e-21)
(10.1405 -0.00555656 2.06559e-22)
(10.1444 -0.00710875 1.59795e-21)
(10.1387 -0.0145107 0)
(10.2596 -0.00886729 1.44003e-21)
(10.1558 -0.0112523 1.25218e-21)
(10.148 -0.00901202 6.01518e-22)
(10.1531 -0.0103929 0)
(9.88877 -0.00618472 1.22153e-21)
(8.8676 -0.000117254 -6.92726e-22)
(9.10585 -0.0297975 4.08753e-20)
(9.74105 -0.014991 -2.82115e-20)
(8.78124 0.0160333 3.20808e-20)
(10.3336 0.0299935 -1.02801e-21)
(10.0116 -0.00270799 -2.12297e-19)
(10.0142 -0.0198767 5.54199e-20)
(10.0108 -0.013846 -6.23115e-20)
(10.022 -0.0211864 -8.25157e-20)
(10.0172 -0.00651532 1.88211e-19)
(10.028 -0.0266708 7.31154e-20)
(9.97294 0.0171535 2.77594e-20)
(10.3405 -0.0152598 1.95469e-20)
(10.2798 -0.0294678 -1.85225e-20)
(10.1918 -0.000114177 -1.50731e-21)
(10.2033 0.0018136 -5.93724e-21)
(10.158 0.0114337 -2.92903e-22)
(10.1574 0.0177937 0)
(10.1617 0.0209368 -1.70183e-21)
(10.1652 0.0160285 0)
(10.161 0.0176571 0)
(10.1612 0.00788942 4.4022e-20)
(10.1599 0.0137788 1.11487e-21)
(10.1588 0.0130661 1.90488e-20)
(10.1589 0.00966458 -1.91851e-20)
(10.1589 0.00368835 -6.82858e-21)
(10.1583 -0.00141412 0)
(10.1604 0.000790788 0)
(10.1565 -0.00255123 1.27336e-20)
(10.1319 -0.00168324 -5.35802e-22)
(10.1355 -0.00321077 -7.51893e-21)
(10.1426 -0.00595232 -4.80841e-21)
(10.1462 -0.00745501 -5.17528e-21)
(10.1497 -0.00935494 -7.53371e-22)
(10.1389 -0.0197938 0)
(10.2597 -0.0109535 -2.95756e-21)
(10.1589 -0.0122205 -1.12705e-21)
(10.1552 -0.0102455 -1.64697e-23)
(9.89171 0.000611467 7.65849e-21)
(8.76562 0.00651054 5.71364e-22)
(8.97735 0.0202602 2.60264e-20)
(10.3267 0.0113443 9.24825e-22)
(10.0008 -0.00197632 -5.61886e-20)
(10.0042 -0.00162416 5.60731e-20)
(10.007 -0.00904344 0)
(10.0193 -0.0246202 -2.26904e-20)
(10.0113 -0.0246271 8.53765e-20)
(10.0069 -0.0176254 7.2119e-20)
(10.1498 -0.00528528 0)
(10.1551 -0.010979 7.11991e-21)
(10.1567 -0.0250556 5.73285e-21)
(10.0258 -0.00783261 -2.88631e-21)
(10.0314 -0.0193434 -1.90214e-20)
(10.0242 -0.0120515 4.7867e-20)
(10.0341 -0.0269428 -6.51061e-21)
(10.0258 -0.0304482 2.76694e-20)
(9.5177 0.0553444 -6.07637e-20)
(10.3523 -0.0333519 -4.39647e-21)
(10.3281 0.00760273 2.70586e-20)
(10.273 -0.00105379 -9.82817e-21)
(10.1691 0.0134176 -1.72595e-22)
(10.1652 0.00724722 1.74819e-21)
(10.1565 0.0225334 -1.33207e-20)
(10.1694 0.0209701 0)
(10.1676 0.0183131 0)
(10.164 0.0197394 -1.1012e-21)
(10.1639 0.0102046 0)
(10.1635 0.0149992 0)
(10.1629 0.0135888 -6.51033e-21)
(10.1657 0.00202417 0)
(10.1645 0.00461458 -3.191e-20)
(10.1608 -0.00498676 -7.69145e-20)
(10.1647 -0.00158567 5.20085e-20)
(10.1657 -0.0165253 0)
(10.1735 -0.0339461 1.61289e-20)
(10.1346 -0.00158277 7.96275e-21)
(10.1383 -0.00393466 -4.09011e-22)
(10.1454 -0.00665238 -1.99993e-20)
(10.148 -0.00788873 1.12971e-20)
(10.1514 -0.00974159 2.13007e-22)
(10.1569 -0.0104429 -1.63178e-22)
(10.1441 -0.0206459 8.44855e-22)
(10.2491 -0.0144512 1.06039e-21)
(10.1609 -0.0117167 -4.73539e-22)
(9.93289 -0.0196995 -1.18298e-20)
(8.57839 0.00820421 1.82514e-20)
(10.0004 -0.00286527 -1.16443e-19)
(10.003 -0.00951527 4.9408e-20)
(10.0163 -0.0308111 -2.80324e-20)
(10.0093 -0.0286159 1.95712e-21)
(10.0052 -0.0203414 -1.37685e-19)
(10.1443 -0.0173724 -1.29331e-20)
(10.1378 -0.00783695 1.10798e-20)
(10.1448 -0.0341345 0)
(10.1839 -0.0562244 -3.06189e-20)
(10.1624 -0.0451581 -1.68182e-20)
(10.0401 -0.0164012 1.67934e-22)
(10.0392 -0.0109813 -2.69464e-20)
(10.0414 -0.0308657 -1.91604e-22)
(10.0335 -0.0353868 -6.28847e-21)
(10.0237 -0.0376733 -2.91157e-20)
(8.65197 0.0442901 -4.48659e-20)
(9.83378 0.103529 1.29699e-20)
(10.3641 0.0416148 -1.30686e-20)
(10.3117 0.0226788 1.04295e-21)
(10.1779 0.0168206 4.74548e-21)
(10.1679 0.0100075 2.83491e-21)
(10.1714 0.00907185 9.34412e-21)
(10.1591 0.022598 -2.55978e-21)
(10.17 0.0231663 2.82299e-21)
(10.1703 0.0206179 0)
(10.1676 0.022333 -9.10048e-21)
(10.1674 0.0134751 -1.04479e-20)
(10.1678 0.0161217 0)
(10.1736 0.00194351 -2.25492e-20)
(10.1722 0.00573016 -1.12626e-20)
(10.1733 -0.00329961 4.96736e-20)
(10.1709 -0.00945903 -1.85342e-20)
(10.1811 -0.0231472 -1.13891e-20)
(10.1951 -0.0411518 4.78652e-20)
(10.1378 -0.00203538 -4.80711e-21)
(10.1416 -0.00475181 8.92245e-21)
(10.1632 -0.0128249 2.23182e-21)
(10.1506 -0.00864779 6.59364e-21)
(10.1495 -0.00850729 0)
(10.153 -0.0103048 1.78242e-21)
(10.1584 -0.0107074 9.94052e-23)
(10.1539 -0.0103392 0)
(10.1536 -0.0178184 -1.8331e-21)
(10.1495 -0.018018 -1.55553e-21)
(10.2878 -0.00592452 1.35464e-21)
(10.0371 -0.0552163 3.23992e-20)
(10.0008 0.0022664 -1.47039e-20)
(10.0003 -0.00386099 0)
(10.0021 -0.0120459 3.14059e-20)
(10.0143 -0.0363965 -6.99872e-21)
(10.0068 -0.0331691 0)
(10.0036 -0.0233769 1.0467e-20)
(10.2207 -0.0690898 -5.43883e-20)
(10.1206 -0.010523 5.39283e-23)
(10.1008 -0.0129397 0)
(10.1302 -0.0240826 -5.98836e-21)
(10.1345 -0.0432591 -1.15226e-21)
(10.0575 -0.0100831 0)
(10.0784 -0.00945782 0)
(10.1675 -0.0701211 1.45811e-20)
(10.148 -0.0551944 -2.9297e-22)
(10.051 -0.0260756 1.03783e-19)
(10.0433 -0.0389 4.96584e-20)
(10.0332 -0.0448647 1.26973e-20)
(10.0211 -0.0446426 0)
(8.45734 -0.00195806 3.56719e-20)
(9.41747 0.108958 0)
(10.2836 0.0579937 1.0376e-21)
(10.3183 0.0251927 -1.20797e-21)
(10.1959 0.0181084 6.33619e-21)
(10.1722 0.012499 1.20613e-20)
(10.177 0.0102283 0)
(10.1604 0.024103 3.90599e-21)
(10.1718 0.0254228 -8.25942e-22)
(10.1732 0.0234601 -3.56417e-21)
(10.1721 0.0251148 -1.69257e-21)
(10.1729 0.0168233 2.04112e-22)
(10.1839 0.00153053 -1.30354e-20)
(10.1807 0.00643219 1.46215e-20)
(10.1855 -0.00516253 1.35471e-20)
(10.1849 -0.01346 -1.22846e-20)
(10.201 -0.0269561 -4.7925e-20)
(10.228 -0.0455804 3.40852e-24)
(10.1416 -0.00257627 -2.67135e-21)
(10.151 -0.00717351 -2.94522e-20)
(10.1463 -0.00598777 1.84861e-20)
(10.1726 -0.0182962 -2.10553e-21)
(10.1648 -0.0129049 -6.38273e-22)
(10.1547 -0.0110905 -1.691e-21)
(10.1565 -0.011834 0)
(10.1597 -0.0112389 1.30367e-21)
(10.1569 -0.0120234 8.49063e-21)
(10.1589 -0.0128612 0)
(9.66485 -0.0877994 -8.21216e-20)
(9.38426 -0.0905853 1.47283e-20)
(10.1402 -0.008166 0)
(10.3265 0.00276849 5.35606e-21)
(10.0004 0.00279352 1.4392e-19)
(10.0022 0.00844517 -1.37242e-19)
(10.0046 0.0010377 0)
(10.0003 -0.0045706 -1.95995e-20)
(10.0014 -0.0137975 7.17973e-20)
(10.0115 -0.0425348 5.91701e-21)
(10.0038 -0.03522 0)
(10.0013 -0.0245382 -1.65425e-19)
(10.2051 -0.0912943 5.43623e-20)
(10.2663 -0.0674004 2.2804e-20)
(10.1189 -0.0326519 -2.71639e-21)
(10.1015 -0.0267134 0)
(10.1186 -0.0514658 4.49111e-21)
(10.082 -0.0232791 0)
(10.065 -0.0273007 -8.67276e-20)
(10.147 -0.0803471 1.58591e-20)
(10.1315 -0.0602036 4.1859e-21)
(10.0554 -0.0402262 -2.00272e-20)
(10.0446 -0.0518571 -1.16824e-20)
(10.0301 -0.0533005 4.03062e-20)
(10.0165 -0.052027 -3.82593e-20)
(8.16082 -0.0231618 5.0575e-21)
(9.11406 0.0769345 3.32031e-21)
(9.05076 -0.0677646 6.77891e-21)
(10.2357 0.0382712 -2.33164e-21)
(10.3408 0.0272973 2.15703e-21)
(10.2081 0.0225599 -2.42022e-21)
(10.1787 0.0164839 0)
(10.1848 0.0145563 -1.95154e-20)
(10.1621 0.0273346 -4.6187e-21)
(10.1736 0.0282463 7.7076e-21)
(10.1779 0.0266334 1.51675e-21)
(10.1772 0.0273325 1.1172e-20)
(10.1908 0.0105982 1.95089e-20)
(10.1962 0.00463789 0)
(10.2005 -0.00371229 0)
(10.2024 -0.0143308 0)
(10.2291 -0.0241487 0)
(10.2668 -0.0398312 -4.70873e-20)
(10.3057 -0.0633902 -7.36514e-20)
(10.1458 -0.00304325 2.67122e-21)
(10.1519 -0.00552275 8.23505e-21)
(10.1666 -0.0137498 2.30827e-21)
(10.1658 -0.0139365 1.75365e-22)
(10.1611 -0.0122723 -1.56602e-21)
(10.1627 -0.0135243 -1.82574e-21)
(10.165 -0.0149097 0)
(10.1587 -0.0117217 0)
(10.1617 -0.0138048 0)
(10.1705 -0.0044667 0)
(10.3662 -0.0137478 3.99226e-20)
(10.2982 -0.0295136 -3.02752e-20)
(10.0006 0.00484177 3.59107e-20)
(10.0023 0.0108638 -2.809e-20)
(10.0049 0.0140307 -6.99186e-20)
(10.0137 0.0079374 0)
(10.0073 0.0109466 0)
(9.99993 -0.0049012 5.48456e-21)
(10.001 -0.0154271 4.30304e-20)
(10.0078 -0.0459645 -1.27536e-21)
(10.0002 -0.0396333 -2.96307e-20)
(9.99941 -0.0301415 2.68047e-19)
(10.1823 -0.107157 1.50415e-22)
(10.2517 -0.0954121 4.598e-20)
(10.3318 -0.104481 -7.23273e-20)
(10.0714 -0.044746 -6.48959e-20)
(10.1023 -0.0508247 2.04364e-20)
(10.0892 -0.0406188 2.966e-20)
(10.125 -0.0862218 0)
(10.1146 -0.0631125 -1.946e-21)
(10.0586 -0.0588241 -1.60961e-20)
(10.0414 -0.0623334 -4.43482e-20)
(10.0231 -0.0623625 2.24779e-20)
(10.0111 -0.0568741 -1.42092e-20)
(10.3284 -0.0677783 0)
(8.03799 -0.0144604 -4.7538e-21)
(8.96732 0.0594021 2.26158e-21)
(8.85634 -0.0372714 -5.15738e-21)
(10.2085 0.0304503 7.21176e-22)
(10.3522 0.0291123 -7.23694e-22)
(10.2156 0.030806 0)
(10.1841 0.0284752 0)
(10.1922 0.0277727 2.006e-20)
(10.1773 0.0321393 0)
(10.1639 0.035295 -8.0041e-23)
(10.1836 0.0299118 -1.47254e-21)
(10.201 0.0245121 -2.00483e-20)
(10.2101 0.0182361 0)
(10.2187 0.00815282 0)
(10.2256 -0.0059343 0)
(10.2611 -0.0151234 0)
(10.2944 -0.0339351 3.68162e-20)
(10.3373 -0.0485909 2.15102e-19)
(10.3657 -0.0675898 1.72872e-20)
(10.1492 -0.00212706 0)
(10.1556 -0.0058166 -8.33638e-21)
(10.1675 -0.0131767 0)
(10.1667 -0.0146835 5.88722e-21)
(10.1676 -0.0170091 -1.54092e-20)
(10.168 -0.0192278 4.7092e-21)
(10.1679 -0.016669 -1.60971e-20)
(10.1626 -0.0123255 2.59346e-21)
(10.1643 -0.0135586 0)
(10.167 -0.0177249 2.37669e-20)
(10.1791 -0.011325 0)
(10.2687 0.0176653 1.65611e-20)
(10.0006 0.00602303 -6.63675e-20)
(10.024 0.00792261 2.02476e-20)
(10.0034 0.0164443 0)
(10.0063 0.0204349 -1.19887e-21)
(10.0114 0.0147339 5.69479e-20)
(9.99982 -0.0045509 0)
(9.99906 -0.0147623 -4.78941e-20)
(10.0024 -0.0501896 3.29373e-20)
(9.99526 -0.0388641 0)
(9.99592 -0.0297389 0)
(9.99822 -0.0211597 -1.818e-21)
(10.1556 -0.117076 -1.8622e-21)
(10.3757 -0.143244 1.01193e-19)
(10.2208 -0.121512 -2.32088e-21)
(10.2941 -0.132133 -7.43133e-20)
(10.105 -0.0876877 5.36461e-20)
(10.0759 -0.0604689 0)
(10.0949 -0.0660254 -2.41782e-20)
(10.0558 -0.0714698 0)
(10.0311 -0.074044 4.97535e-21)
(10.0152 -0.0694449 4.2947e-20)
(10.0038 -0.0620501 -1.71482e-20)
(10.2777 -0.0441466 0)
(7.97169 -0.0142801 2.82115e-21)
(8.87354 0.0583647 -3.67538e-21)
(8.77232 -0.0338065 -7.59755e-22)
(10.1707 0.0248113 9.34912e-22)
(10.3547 0.0321666 1.26048e-21)
(10.2176 0.0455143 6.09884e-22)
(10.2025 0.0342569 2.18825e-20)
(10.1921 0.0326832 -1.06422e-20)
(10.184 0.0375213 1.28381e-21)
(10.1676 0.0486879 -1.38079e-21)
(10.2142 0.0323624 -2.88725e-20)
(10.2268 0.0271639 1.71388e-20)
(10.2517 0.00459631 0)
(10.2397 0.0185362 0)
(10.2846 -0.00719025 -1.31583e-20)
(10.3523 -0.00679642 7.82377e-20)
(10.3227 -0.0105126 0)
(10.3868 -0.0273248 -2.17921e-19)
(10.4095 -0.098151 -1.39789e-19)
(10.1534 -0.00199396 4.57369e-21)
(10.1592 -0.00540065 -2.47583e-21)
(10.1663 -0.0119427 1.78741e-20)
(10.1676 -0.0190215 4.09268e-21)
(10.1708 -0.0178548 1.33801e-20)
(10.1709 -0.0223871 -1.94374e-21)
(10.1721 -0.0177068 3.79314e-22)
(10.1683 -0.0143634 -2.19851e-21)
(10.1693 -0.0195399 8.63754e-21)
(10.1625 -0.0250312 0)
(10.243 -0.0113507 -2.60913e-22)
(10.0002 0.0057563 -4.06298e-20)
(10.0016 0.0153372 8.2957e-20)
(10.0388 0.00743852 -2.93713e-20)
(10.0282 0.0195775 -5.34849e-20)
(10.0054 0.0232428 3.27402e-20)
(10.0107 0.0237566 -2.45647e-20)
(10.0205 0.0216446 5.22417e-20)
(9.99812 -0.011551 0)
(9.99964 -0.00370483 0)
(9.99563 -0.049592 -1.6762e-20)
(9.99021 -0.0373707 -5.57182e-20)
(9.99263 -0.0285499 1.70705e-20)
(9.99557 -0.0198527 1.85982e-21)
(10.1294 -0.120833 -1.7443e-20)
(10.4297 -0.194478 -1.74375e-19)
(10.1871 -0.141247 -4.67331e-21)
(10.3357 -0.183372 2.66102e-20)
(10.2545 -0.170418 3.02851e-20)
(10.0896 -0.0917616 -4.33938e-20)
(10.0717 -0.077337 -1.30002e-20)
(10.106 -0.120127 2.37876e-20)
(10.0438 -0.0869513 -7.22271e-20)
(10.0215 -0.0847366 0)
(10.0055 -0.0762351 -1.33758e-20)
(9.99428 -0.0625256 -3.59412e-21)
(10.3033 -0.0456779 5.32538e-22)
(7.93228 -0.0224378 0)
(8.78239 0.0616116 1.11672e-21)
(8.69495 -0.0299489 0)
(10.1348 0.0194311 -1.31181e-21)
(10.3542 0.0365282 -5.83657e-22)
(10.2088 0.0612102 7.81343e-23)
(10.2077 0.0498807 0)
(10.1942 0.0438925 9.02859e-22)
(10.1761 0.061022 1.59354e-20)
(10.2256 0.0439424 0)
(10.24 0.0380012 3.38927e-20)
(10.2713 0.0132974 -4.40389e-21)
(10.256 0.0289599 -3.89974e-20)
(10.3098 0.00226776 -2.54792e-21)
(10.3587 0.0308465 9.68441e-20)
(10.3963 0.00744976 -4.45681e-20)
(10.4345 -0.047875 1.62706e-19)
(10.4674 -0.138378 4.00241e-20)
(10.157 -0.00187715 0)
(10.1639 -0.00512239 0)
(10.1708 -0.0110319 -2.42706e-20)
(10.1724 -0.0147327 6.47732e-22)
(10.1684 -0.0231182 -9.44046e-21)
(10.1721 -0.020553 0)
(10.1739 -0.026448 -2.41144e-21)
(10.1746 -0.019167 -3.8194e-21)
(10.1736 -0.0204015 3.51426e-21)
(10.169 -0.0270809 4.33255e-21)
(10.2607 -0.0136545 1.12263e-22)
(10.0001 0.00433648 3.33713e-20)
(10.0004 0.0131133 8.38184e-20)
(10.0018 0.020653 -1.22571e-19)
(10.0037 0.0245468 -4.44602e-20)
(10.057 0.00733756 0)
(10.0413 0.0194834 3.42458e-20)
(10.0335 0.0301903 -4.13114e-20)
(10.0089 0.0291004 -1.43383e-20)
(10.0168 0.030244 0)
(10.0272 0.031103 -8.78617e-20)
(10.0774 0.00695327 -4.27039e-21)
(9.99704 -0.00805077 5.01437e-20)
(9.99954 -0.00229298 0)
(9.99985 0.00369583 0)
(9.98795 -0.04733 -2.07331e-20)
(9.98541 -0.0315911 4.39295e-20)
(9.99237 -0.0154345 -5.40405e-20)
(9.98821 -0.0235115 0)
(10.1493 -0.155274 7.79552e-24)
(10.3835 -0.243617 1.50395e-20)
(10.2114 -0.194174 5.91312e-21)
(10.2897 -0.220057 3.13165e-22)
(10.0817 -0.115741 3.29391e-20)
(10.0606 -0.0989185 5.96852e-20)
(10.1123 -0.160275 0)
(9.98327 -0.0602484 4.40275e-20)
(10.0332 -0.103696 -7.75518e-22)
(10.0094 -0.0952438 0)
(9.99236 -0.0781899 -1.65514e-20)
(10.2868 -0.0421489 -8.77588e-23)
(7.90014 -0.0266295 4.52295e-22)
(8.6987 0.0681068 -6.94624e-22)
(8.64874 -0.0268951 -1.25056e-21)
(10.2082 0.0708722 0)
(10.1219 0.00705185 1.14745e-22)
(10.3479 0.0396366 -8.12176e-23)
(10.2063 0.0673041 -2.34852e-20)
(10.1901 0.0704529 3.65548e-21)
(10.2487 0.0628047 -7.7041e-21)
(10.2332 0.0612574 2.86371e-20)
(10.2906 0.0373344 -5.52365e-20)
(10.3239 0.0460274 -1.01176e-19)
(10.2712 0.04075 7.21343e-20)
(10.3827 0.048387 0)
(10.4462 0.0086652 9.75424e-20)
(10.4959 -0.075942 0)
(10.1591 -0.00160702 4.30713e-21)
(10.1713 -0.00412376 4.45319e-20)
(10.1755 -0.0092808 0)
(10.1774 -0.0144108 -3.76497e-22)
(10.1783 -0.0210628 -1.04956e-20)
(10.1698 -0.0294005 0)
(10.1746 -0.0226181 0)
(10.1776 -0.029583 -3.5341e-22)
(10.1794 -0.0213495 1.01772e-20)
(10.1701 -0.0342242 1.10988e-21)
(10.2637 -0.0191956 -1.05402e-21)
(10.1563 0.000498687 -5.24071e-21)
(10.1517 0.00160792 0)
(9.99937 0.0130703 1.34874e-20)
(9.99925 0.0213916 0)
(10.0029 0.028773 4.66943e-20)
(10.0068 0.0324853 1.4379e-20)
(10.0576 0.0203749 0)
(10.0441 0.0315151 5.74848e-20)
(10.0345 0.036905 3.79223e-21)
(10.0144 0.0367311 0)
(10.0243 0.0380351 0)
(10.0758 0.0219171 -4.76375e-22)
(10.0983 0.0059426 -4.13081e-21)
(10.1178 0.00348905 0)
(10.1334 0.000149289 4.61205e-20)
(10.1468 0.00504469 -4.57151e-20)
(9.99927 0.000634097 0)
(9.99571 -0.00264237 0)
(9.99966 0.00198777 0)
(9.99823 0.0115161 0)
(9.97161 -0.0514708 -2.15664e-20)
(9.98003 -0.0395406 5.48338e-20)
(9.98185 -0.0249664 0)
(9.98895 -0.00928131 5.35095e-20)
(10.1641 -0.213855 1.99077e-20)
(10.3306 -0.287066 2.33599e-20)
(10.2387 -0.251824 -2.14985e-20)
(10.0514 -0.123404 2.82092e-21)
(10.0774 -0.139367 -6.27009e-22)
(10.097 -0.191792 1.03998e-20)
(10.1189 -0.229883 -3.59046e-20)
(9.96075 -0.0655842 0)
(9.97674 -0.0760392 -2.64418e-21)
(10.0186 -0.118603 0)
(9.99124 -0.0998463 0)
(10.306 -0.0435535 0)
(8.60762 0.0738101 -1.7286e-22)
(7.85603 -0.030903 -2.51397e-22)
(8.71526 -0.0394439 -1.01529e-20)
(10.3332 0.0514053 0)
(10.1663 -0.00310484 -4.32349e-21)
(10.2188 0.0957174 -4.00331e-21)
(10.2414 0.0727197 -1.42121e-20)
(10.3203 0.0856123 0)
(10.2789 0.0801851 0)
(10.3615 0.080552 -3.92496e-20)
(10.4432 0.0642784 4.59383e-21)
(10.5128 -0.00722523 2.4918e-20)
(10.1693 0.000861156 -5.32161e-20)
(10.1803 -0.00709251 0)
(10.1829 -0.0128547 1.44188e-20)
(10.1842 -0.0208688 3.77521e-22)
(10.1847 -0.0231053 1.8236e-21)
(10.1725 -0.03676 -1.15748e-21)
(10.1785 -0.0255504 1.53016e-21)
(10.1826 -0.0324797 0)
(10.2663 -0.0251394 2.97845e-22)
(10.1719 -0.0416365 -7.30982e-22)
(10.1568 0.0133388 2.21654e-20)
(10.1669 0.00522249 8.69732e-21)
(10.1612 0.00984218 -2.83026e-21)
(9.99798 0.0212349 1.6432e-20)
(9.99972 0.0292948 -3.1967e-20)
(10.005 0.0372207 -1.61441e-20)
(10.0118 0.0417042 1.37e-20)
(10.0586 0.0335608 0)
(10.0451 0.0409668 2.21929e-20)
(10.0334 0.0450304 -3.58747e-21)
(10.0219 0.0456704 1.12346e-21)
(10.0746 0.0364193 -1.73641e-20)
(10.0962 0.0270876 1.48594e-20)
(10.0917 0.0378174 -7.68081e-21)
(10.1582 0.0227876 1.34661e-20)
(10.1155 0.0254727 -1.24413e-23)
(10.1475 0.0238571 -1.16079e-21)
(10.1332 0.0238469 3.99657e-21)
(9.99665 0.00850082 0)
(9.99262 0.00360581 0)
(9.99564 0.0196081 6.1113e-20)
(9.9854 0.00243241 -1.07263e-19)
(9.96078 -0.0417327 -5.67956e-20)
(9.97243 -0.0311509 2.55014e-20)
(9.98089 -0.0125435 1.70528e-20)
(9.94678 -0.0509438 0)
(10.1844 -0.276126 0)
(10.2717 -0.324368 1.52401e-20)
(10.0367 -0.155618 -2.3424e-20)
(10.0557 -0.210052 3.13972e-20)
(10.0613 -0.168736 3.06135e-20)
(10.0654 -0.24803 -1.58745e-20)
(10.1286 -0.293442 5.8988e-21)
(9.96897 -0.0962945 -4.44384e-20)
(9.94791 -0.0813696 5.28927e-20)
(9.99178 -0.12963 -3.85472e-20)
(10.3891 -0.0544097 2.71724e-21)
(8.51395 0.103536 8.97301e-21)
(7.78543 -0.0326865 -4.76258e-20)
(8.72366 -0.0980834 -5.93251e-21)
(10.3603 0.06092 1.70818e-20)
(10.2567 0.016776 -1.85897e-20)
(10.2521 0.108521 4.24322e-20)
(10.263 0.0818793 -2.32579e-20)
(10.3417 0.117994 1.85402e-19)
(10.4263 0.118226 3.13487e-19)
(10.5174 0.0633929 -2.36897e-19)
(10.1814 -0.00177206 0)
(10.1886 -0.00960045 -3.02352e-20)
(10.1911 -0.0191312 -1.08814e-22)
(10.1918 -0.023949 -1.18397e-20)
(10.1893 -0.0342366 1.1874e-21)
(10.1781 -0.0446901 3.86979e-22)
(10.1844 -0.0294437 5.85636e-22)
(10.233 -0.0325769 -2.87469e-22)
(10.1693 -0.049934 0)
(10.1672 0.0145941 0)
(10.1816 0.0047057 0)
(9.99304 0.0283379 1.02016e-19)
(9.99683 0.0297968 -1.68301e-20)
(10.001 0.0385801 4.99115e-20)
(10.0089 0.0477089 0)
(10.0193 0.052648 -4.36291e-20)
(10.059 0.0454613 -6.5008e-21)
(10.0451 0.0510393 -1.46081e-21)
(10.0316 0.0546956 1.48765e-20)
(10.0744 0.0484755 1.1068e-20)
(10.0909 0.0553944 1.73524e-20)
(10.1066 0.0473752 -6.16636e-21)
(10.1684 0.0239623 5.928e-21)
(10.1638 0.0307869 1.43451e-20)
(10.1218 0.0443142 1.1231e-21)
(10.1538 0.0350592 -2.51421e-21)
(10.1396 0.0399769 -1.2856e-20)
(9.99257 0.0164917 5.81639e-20)
(9.98734 0.0117302 7.49548e-20)
(9.98909 0.0248801 -2.21285e-19)
(9.97702 0.000850569 -1.7826e-20)
(9.93091 -0.06676 1.64533e-20)
(9.95032 -0.0236136 -2.77455e-19)
(9.96443 -0.0122918 8.90236e-20)
(9.93411 -0.0260323 0)
(9.98671 0.0317097 4.49384e-20)
(10.2074 -0.352904 -3.59819e-21)
(9.99988 -0.170987 0)
(10.0114 -0.202533 6.72859e-20)
(10.0204 -0.249331 -3.90383e-20)
(10.0699 -0.303599 0)
(10.1383 -0.371317 -3.59281e-21)
(9.94631 -0.162142 -9.43322e-20)
(9.95317 -0.129241 3.22645e-20)
(9.92724 -0.119697 -1.34236e-19)
(10.4165 -0.0956399 7.4773e-21)
(8.32342 0.223343 3.27827e-21)
(7.78358 -0.0421655 2.98736e-19)
(8.31875 -0.228052 -1.70307e-19)
(10.3276 0.149735 -2.003e-21)
(10.2874 0.143043 -1.61579e-19)
(10.3539 0.148097 8.21748e-20)
(10.3952 0.167444 -1.85513e-19)
(10.5061 0.13633 -7.82407e-21)
(10.1937 -0.00420892 1.5915e-20)
(10.1984 -0.0150406 -3.40655e-23)
(10.2006 -0.0227646 1.69187e-20)
(10.1986 -0.0345449 -1.12476e-21)
(10.1849 -0.0540605 -7.51789e-22)
(10.1927 -0.0333411 1.85724e-21)
(10.2111 -0.0519996 1.62625e-22)
(10.1762 -0.0604912 2.00684e-20)
(10.1818 0.0133016 0)
(10.1974 0.00372363 -1.81562e-20)
(9.99125 0.0370873 -3.72124e-20)
(9.9965 0.039133 -3.33466e-20)
(10.0037 0.0512542 0)
(10.0162 0.06143 -2.78322e-20)
(10.0295 0.06314 1.58958e-20)
(10.0593 0.0565701 6.24942e-21)
(10.0439 0.0635589 0)
(10.0759 0.0615571 -3.12388e-21)
(10.0945 0.0631623 -1.74889e-21)
(10.1133 0.0627339 4.4994e-21)
(10.1812 0.0243669 -1.03478e-20)
(10.1752 0.0349626 0)
(10.1314 0.0589208 -5.11958e-22)
(10.1642 0.0447204 -1.0567e-21)
(10.1492 0.0525882 -7.134e-21)
(9.97908 0.0114783 -3.2485e-20)
(9.98208 0.0238833 0)
(9.96 0.000523084 2.05652e-19)