/*--------------------------------*- C++ -*----------------------------------*\
  =========                 |
  \\      /  F ield         | OpenFOAM: The Open Source CFD Toolbox
   \\    /   O peration     | Website:  https://openfoam.org
    \\  /    A nd           | Version:  8
     \\/     M anipulation  |
\*---------------------------------------------------------------------------*/
FoamFile
{
    version     2.0;
    format      ascii;
    class       volScalarField;
    location    "4000";
    object      p;
}
// * * * * * * * * * * * * * * * * * * * * * * * * * * * * * * * * * * * * * //

dimensions      [0 2 -2 0 0 0 0];

internalField   nonuniform List<scalar> 
4109
(
-0.0055258
-0.0177857
-0.00879478
-0.0287618
-0.0299025
-0.0185352
-0.0287142
-0.0146656
-0.0392329
-0.0397023
-0.0390235
-0.042968
-0.00912995
-0.0228969
-0.031784
-0.0463753
-0.0507374
-0.0467474
-0.0451172
-0.0419993
-0.00271983
-0.0324544
-0.0327698
-0.053801
-0.054645
-0.0622782
-0.00303774
-0.00825307
-0.00559288
-0.0520848
-0.0456178
-0.0470741
-0.0299941
-0.0869052
-0.0618534
-0.0572768
-0.0622809
-0.0762956
-0.016525
-0.00504032
-0.000179324
-0.0132373
0.000369482
-0.0561618
-0.05187
0.0902571
-0.0558638
-0.0471493
-0.0551012
-0.0764545
-0.0683483
-0.06592
-0.0717176
-0.0884896
-0.0239563
-0.0109573
-0.00519443
0.0150104
-0.00957937
-0.0210122
-0.0678251
0.0650812
-0.0617077
-0.056268
-0.0523849
-0.0337314
-0.0585373
-0.0520062
-0.0577905
-0.0537263
-0.105417
-0.0804851
-0.12573
-0.125608
-0.127191
-0.0299452
-0.0327424
-0.0231412
-0.0123218
-0.0206132
-0.0117983
-0.0150713
-0.0160018
-0.0261663
0.0156341
-0.206772
0.123735
-0.23629
-0.00806654
-0.081278
-0.0713085
-0.061591
-0.0557958
-0.0534262
-0.0541258
0.0316235
-0.0531071
-0.0620732
-0.125487
-0.108886
-0.097936
-0.139538
-0.137428
-0.145651
-0.151149
-0.0344186
-0.0374079
-0.0398942
-0.0230491
-0.00477302
0.0639416
-0.0153711
-0.0156192
-0.0236559
-0.0302089
-0.578977
0.112121
0.0118656
-0.00552254
-0.30973
-0.120351
0.261543
-0.088356
-0.0778344
-0.0696325
-0.0563427
-0.0551369
-0.0465289
-0.0744523
-0.0633378
-0.0570192
-0.119961
-0.111707
-0.148667
-0.133552
-0.178188
-0.16658
-0.0415822
-0.0475499
-0.0504052
-0.034009
0.00853352
0.0595788
-0.0129572
-0.0243077
-0.0271556
-0.034525
0.087974
0.0820161
-0.215358
-0.100515
-0.137524
0.0954445
-0.0863092
-0.0842318
-0.0757848
-0.0602067
-0.0487106
-0.0438279
-0.0397038
-0.00610213
-0.0286963
-0.109054
-0.100069
-0.148148
-0.123478
-0.166368
-0.181527
-0.214805
-0.0519657
-0.0580861
-0.0627304
-0.0508973
0.00797269
0.0295653
-0.019882
-0.0237463
-0.0259034
-0.0427708
0.0191898
-0.158059
0.0161756
-0.0697286
-0.083837
-0.0218425
-0.0804231
-0.0853689
-0.0724417
-0.0459807
-0.0461528
-0.028218
-0.0139122
-0.0107763
-0.0931455
-0.100557
-0.138666
-0.112065
-0.157522
-0.185383
-0.216401
-0.256861
-0.0662864
-0.0724641
-0.075641
-0.0670099
-0.0157329
0.00398218
-0.010091
-0.0119387
-0.0241666
-0.0567744
-0.092838
-0.103658
-0.0847222
-0.0154769
-0.0943654
-0.0462657
-0.0769261
-0.0783245
-0.0946008
-0.0488314
0.0960169
0.0667226
-0.080889
-0.086075
-0.127791
-0.0968546
-0.147424
-0.178907
-0.215682
-0.256428
-0.302686
-0.0824299
-0.0866277
-0.0872438
-0.0800598
-0.00853159
0.029419
0.00992664
0.0132263
-0.0989313
-0.0381424
-0.0735718
-0.0638667
-0.0630792
0.054523
-0.138856
-0.208946
-0.0525843
-0.085165
-0.0605336
-0.0901962
0.060381
0.0674125
-0.06345
-0.0656739
-0.111743
-0.0768483
-0.131148
-0.169945
-0.206611
-0.249168
-0.298442
-0.34962
-0.104185
-0.095039
-0.0917895
-0.116264
0.020978
0.10131
-0.0172953
-0.11317
-0.0906164
-0.0616222
-0.175211
-0.129483
-0.231246
0.0634256
-0.197116
0.010101
1.07812
-0.0566733
-0.0104125
-0.337648
-0.0965802
-0.0537637
-0.0292559
-0.0864252
-0.0444963
-0.109023
-0.153143
-0.196193
-0.237454
-0.285911
-0.333449
-0.370409
-0.383073
-0.113511
-0.116779
-0.10816
-0.13404
-0.130454
0.0198057
0.100878
-0.0553829
-0.107425
-0.0841766
-0.0650613
-0.222334
-0.0284094
-0.0484341
0.402639
0.0500932
1.084
1.12375
1.13627
1.02866
1.0289
0.970486
-0.661716
-0.249246
-0.148248
-0.112641
0.0145399
-0.0465907
-0.0389384
-0.0807615
-0.132184
-0.178211
-0.371179
-0.226218
-0.272034
-0.322457
-0.394575
-0.400802
-0.411604
-0.386536
-0.136851
-0.136378
-0.153327
-0.148369
-0.125026
-0.025609
-0.0109098
-0.0909351
-0.103883
0.335375
0.118104
1.01255
-0.105043
1.19987
1.1636
1.16969
1.07778
1.19672
1.21869
-0.314792
-0.362363
-0.329416
0.946706
0.922035
0.993091
0.909686
1.01661
0.109368
0.164558
0.160868
0.0233239
-0.0275552
-0.399239
-0.104894
-0.109164
-0.155319
-0.204954
-0.360145
-0.261029
-0.310957
-0.437776
-0.419122
-0.424737
-0.437664
-0.427329
-0.437967
-0.166425
-0.159355
-0.17422
-0.165185
-0.141973
-0.122672
-0.0966715
-0.153455
-0.104093
0.778509
0.616136
1.24484
1.23211
1.15623
1.27709
1.3057
-0.247364
-0.192472
-0.19495
-0.484519
-0.319489
0.827181
0.812182
0.842598
0.942133
1.08288
-0.0893351
0.445976
0.435817
0.0322273
-0.0790132
-0.394414
-0.421008
-0.114754
-0.131127
-0.173932
-0.23449
-0.354417
-0.302895
-0.473095
-0.451158
-0.484184
-0.474653
-0.518143
-0.597463
-0.197829
-0.185637
-0.120144
-0.203039
-0.178566
-0.158221
-0.138433
-0.223358
-0.108682
-0.077772
-0.104794
-0.263084
1.20511
1.32599
1.32307
1.23149
1.37116
1.40721
-0.797877
-0.0184848
0.18797
-0.081357
-0.0973914
0.629661
0.410318
-0.313659
-0.168717
0.71641
0.842832
0.98776
1.16514
-0.155458
0.0239992
0.13212
-0.0274471
-0.101808
-0.401107
-0.445947
-0.129045
-0.144276
-0.191911
-0.269613
-0.354582
-0.528419
-0.491507
-0.552961
-0.553544
-0.655182
-0.867513
-0.231861
-0.244685
-0.215936
-0.123044
-0.134625
-0.174409
-0.193913
-0.150499
-0.245187
-0.215719
-0.521883
-0.250516
-0.239584
-0.0475247
1.25024
1.23372
1.16556
1.42906
1.42573
1.32477
1.48589
1.53935
-0.63222
-1.19535
0.045326
0.200315
0.0721156
0.402788
0.584329
-0.0991677
0.013276
0.711793
0.870678
1.07815
1.2783
-0.257096
-0.2256
-0.229263
-0.0576237
-0.0470742
-0.101548
-0.414473
-0.477234
-0.136772
-0.160908
-0.225908
-0.323478
-0.540006
-0.597739
-0.643868
-0.667035
-0.869601
-1.17169
-1.45116
-0.269787
-0.282363
-0.145782
-0.140708
-0.165199
-0.185277
-0.209461
-0.281745
-0.242476
-0.202731
-0.0787314
0.3664
1.32571
1.30239
1.23988
1.07013
1.16194
1.54991
1.5508
1.43841
1.59981
1.63101
-0.393978
-0.998027
-1.71283
0.550721
0.253587
0.353266
0.129754
0.184839
0.73127
0.967514
1.22462
1.41151
0.302614
-0.18563
-0.252178
-0.261225
-0.101227
-0.0214409
-0.0522509
-0.394264
-0.478105
-0.198779
-0.135468
-0.285971
-0.568188
-0.664043
-0.756293
-0.829976
-1.09998
-1.38843
-1.76811
-2.05815
-0.31525
-0.320703
-0.120816
-0.147877
-0.166027
-0.187189
-0.223557
-0.317886
-0.283272
-0.244821
-0.0486583
0.0239547
1.43194
0.96802
1.34172
1.27488
1.14742
1.67649
1.6808
1.56814
1.72251
1.73623
1.70155
-0.110458
-2.17691
-0.695777
-1.36917
0.337158
0.54804
0.369677
0.825025
1.15497
1.38505
1.56226
0.0282261
-0.113721
-0.173911
-0.1415
-0.0751197
0.0937248
0.034554
-0.481631
-0.371791
-0.264586
-0.182765
-0.60188
-0.736993
-1.00283
-0.873102
-1.30773
-1.96734
-1.62662
-2.26247
-2.50009
-0.359478
-0.356424
-0.35563
-0.134682
-0.155782
-0.195283
-0.246818
-0.320943
-0.28223
-0.0871772
-0.073281
1.55519
1.43181
0.82318
0.955901
1.33542
1.21944
1.04436
1.79483
1.78988
1.70894
1.8459
1.84024
1.81666
0.159209
-2.72918
-0.336247
-1.78284
-0.950622
0.495312
0.658584
0.394364
1.02793
1.33458
1.55793
1.73007
0.020048
-0.0202873
-0.0982749
-0.101887
0.0295344
0.17845
-0.00220664
-0.511485
-0.35894
-0.268919
-0.680574
-0.836298
-1.16746
-1.00339
-1.55576
-1.96387
-2.32633
-2.73539
-3.09735
-0.400801
-0.393418
-0.395946
-0.364682
-0.142029
-0.163146
-0.218324
-0.280955
-0.323063
-0.0767527
-0.0420828
1.67776
1.58295
1.51714
1.41463
0.63476
0.815397
0.926484
1.29249
1.15717
1.00569
0.422262
1.88458
1.87231
1.79095
1.85988
1.9549
1.91883
1.9547
0.057228
-2.27521
-0.508192
-1.31451
0.657102
0.862871
0.429395
1.91293
1.22047
1.53127
1.75987
0.0455936
-0.0418592
-0.0820064
-0.0520287
-0.163879
0.0327583
0.0556467
-0.533836
-0.345813
-0.896374
-0.758493
-1.31854
-1.66385
-1.15536
-2.21199
-2.84313
-3.36361
-0.416111
-0.449693
-0.444585
-0.415382
-0.373054
-0.156785
-0.182048
-0.25427
-0.324287
-0.0770539
-0.0296175
-0.396425
-0.339394
1.69521
1.6191
1.50287
1.37964
0.643479
0.811454
0.945458
1.23303
1.08893
0.456445
0.20819
0.0085497
-0.159737
-0.274193
1.91069
1.94415
1.87877
1.80045
2.09573
2.0067
2.03677
2.00008
-0.0355567
-1.73944
-0.79256
1.04827
0.783988
0.642249
0.382532
2.20323
1.9837
1.44659
1.78037
0.0311308
-0.110735
0.0175489
0.498225
-0.351414
-0.0492695
-0.725078
-0.493771
-1.56099
-1.15116
-1.92964
-2.78939
-3.50488
-0.464108
-0.490427
-0.47398
-0.433641
-0.378823
-0.177042
-0.220468
-0.303481
-0.0573606
-0.0712555
-0.333815
-0.440265
-0.370915
1.7141
1.60614
1.47794
1.32237
0.661763
0.834476
1.00277
1.15686
0.497153
0.254835
0.33415
-0.330671
0.0553963
-0.244215
-0.113725
1.89927
1.96493
1.81814
2.03622
2.25054
2.12712
2.08121
2.38182
-0.247201
-1.14014
1.28128
1.15733
1.02126
0.999836
0.32
2.07158
2.34373
1.78109
0.219212
0.148041
0.901394
0.566197
-0.251427
-0.391289
-0.877466
-0.56533
-1.67144
-2.5635
-3.49932
-0.518982
-0.53248
-0.50534
-0.451419
-0.368805
-0.228808
-0.280298
-0.0935339
-0.106737
-0.410848
-0.520028
1.8314
1.71881
1.5865
1.42856
1.23838
0.691806
0.884623
1.06018
0.535228
0.378937
0.18945
-0.415942
-0.367097
0.0387095
-0.277867
-0.137203
1.92424
2.00418
1.94488
2.12193
2.55428
2.3994
2.23118
2.53107
1.94689
-0.483725
1.71694
1.59081
1.43887
0.940418
0.234359
2.36233
2.20652
2.52625
0.198219
0.635967
2.16074
0.458323
0.476317
-1.23444
-0.769028
-2.15887
-3.33798
-0.586906
-0.581554
-0.544591
-0.462213
-0.297957
-0.362397
-0.155413
-0.148996
-0.521756
-0.627455
1.83651
1.7123
1.55036
1.33491
1.13115
0.739194
0.935523
0.574067
0.382252
0.188001
-0.503384
-0.441018
0.000324686
-0.334022
-0.18288
2.08379
2.02874
2.28308
2.93895
2.71645
2.73419
2.5536
2.00296
1.88103
1.55939
0.983587
2.28399
2.72102
3.03331
0.121151
0.849291
-0.129575
-0.198477
-1.67499
-0.963702
-2.98836
-0.655532
-0.645651
-0.590275
-0.295407
-0.453991
-0.346221
-0.647966
-0.720206
1.69427
1.84756
1.45847
1.2041
0.99859
0.783586
0.603391
0.395281
0.171324
-0.626128
-0.554538
-0.0554314
-0.432025
-0.262027
2.13779
2.23398
2.52652
3.2489
2.98237
2.83352
3.49527
2.04469
2.12943
1.7327
2.66911
3.11735
3.54224
-0.208077
0.0810845
0.121351
-0.195691
-2.39661
-1.35418
-0.745975
-0.717056
-0.486874
-0.603159
-0.620858
-0.760349
-0.842643
1.63037
1.82906
1.32175
1.07386
0.837388
0.638592
0.402008
0.141319
-0.753523
-0.684821
-0.120036
-0.550347
-0.357041
2.25322
2.42314
2.80932
3.51112
3.17329
3.92379
2.02956
2.44922
3.13035
3.71764
4.23682
-32.2649
-0.239612
0.284264
0.336308
-0.404801
-31.5191
-0.852373
-0.764642
-0.888691
-1.0057
-0.709435
-0.91191
-0.993306
1.75146
1.51231
1.19674
0.910382
0.6895
0.412478
0.106144
-0.923973
-0.85333
-0.198182
-0.699387
-0.474716
2.65422
2.34259
3.29016
3.97104
4.59891
2.52079
2.07567
-34.3525
-32.2653
-0.148017
0.149132
0.193357
-29.4861
-31.3939
-31.7488
-0.989008
-1.03987
-1.17236
-1.19739
-0.824859
-1.11748
-1.19033
1.71658
1.41376
1.03318
0.779349
0.430018
0.0517103
-1.17475
-1.09379
-0.311269
-0.638326
-0.905732
3.09208
3.9092
4.73342
2.93847
2.51733
2.07916
-35.3388
-34.4219
-32.2661
-0.503986
-28.895
-31.1345
-33.929
-30.9598
-1.32351
-1.49491
-1.54116
-1.344
-1.42981
-1.4654
1.64139
1.24329
0.941366
0.470128
-0.00748527
-1.5669
-1.437
-0.448867
-0.842942
-1.17645
3.75833
4.71495
2.85155
3.50995
2.5259
2.0691
-36.176
-35.4857
-34.4559
-32.2502
-35.0415
-27.437
-28.6534
-30.882
-34.0646
-30.7476
-1.76563
-1.98052
-2.32019
-1.92764
-1.76908
-1.93897
1.51366
1.01736
0.454244
-0.102693
-2.15622
-1.86622
-0.628096
-1.10114
-1.51593
4.54758
3.2139
4.20035
2.76775
2.20238
-36.1859
-35.6105
-34.4724
-32.2299
-33.8685
-35.2821
-27.5705
-27.4385
-28.5251
-30.6549
-33.978
-30.7326
-2.3047
-2.89541
-2.43795
-2.5634
-2.6996
1.60745
1.00512
0.377273
-0.258313
-2.53262
-2.25107
-0.862396
-1.40858
-1.88442
3.72432
3.13601
2.45537
-38.8091
-36.0606
-35.6971
-34.4824
-32.2068
-33.9371
-35.4452
-25.4524
-27.6085
-27.4079
-28.4331
-30.4478
-33.8523
-30.6521
-3.21606
-3.36428
-3.41105
-3.36228
1.74583
1.00964
0.25956
-0.472556
-3.13199
-2.76566
-1.15579
-1.77283
-2.31493
-41.6616
-38.9172
-35.9437
-35.7588
-34.494
-32.1842
-34.0729
-35.605
-25.0135
-25.4714
-27.638
-27.36
-28.3611
-30.2626
-33.7078
-30.4836
-46.357
-41.8579
-38.9902
-35.8563
-35.8041
-34.5079
-32.1612
-34.1871
-35.7774
-21.0323
-25.1935
-25.4867
-27.6411
-27.3334
-28.2894
-30.1437
-33.5593
-30.2815
-49.0542
-46.202
-41.9703
-39.0509
-35.7975
-35.8396
-34.5242
-34.2733
-35.9668
-25.3544
-20.8345
-25.3258
-25.4861
-27.6253
-27.3228
-28.2128
-33.4397
-94.1993
-48.6184
-46.1777
-42.0505
-39.0805
-35.7592
-35.8624
-34.3236
-36.1414
-20.0995
-26.1357
-20.8433
-25.3898
-25.4847
-27.6003
-27.3287
-33.3863
-30.5452
-103.5
-47.5064
-46.2378
-42.1113
-39.0862
-35.7396
-34.3244
-21.6877
-20.2191
-26.9604
-20.8725
-25.4141
-25.4854
-27.5752
-27.3356
-44.5267
-30.9087
-112.461
-46.2847
-46.3213
-42.1433
-39.0755
-34.2936
-20.946
-21.7546
-20.2885
-27.7466
-20.9073
-25.416
-25.4921
-27.5657
27.5337
-52.1177
-30.5393
-120.556
-45.0501
-46.3959
-42.151
-39.0514
-20.8956
-20.9036
-21.8329
-20.3599
-28.4754
-20.952
-25.4095
-25.5001
35.0694
30.6556
-60.6033
-29.949
-127.694
-43.8007
-46.4021
-42.1347
-20.4749
-20.8399
-20.8634
-21.888
-20.4458
-29.1817
-20.9809
-25.4185
47.3692
36.2081
33.8066
-68.4842
-29.2345
-134.433
-42.6549
-46.3372
-20.4793
-20.4062
-20.7852
-20.8296
-21.9263
-20.5426
-29.865
-20.9704
50.05
48.238
37.3963
36.1803
-75.6613
-28.3776
-141.488
-41.8857
-20.9047
-20.4079
-20.333
-20.7321
-20.804
-21.9544
-20.6372
-30.2909
49.9734
50.6054
49.1478
38.3941
38.2119
-82.6947
-27.607
-146.792
-20.9507
-20.8466
-20.3329
-20.2652
-20.682
-20.7849
-21.9762
-20.7059
47.5845
50.5702
51.2212
49.8827
39.3455
40.1625
-90.4806
-27.5186
-21.6872
-20.9052
-20.7906
-20.2638
-20.2053
-20.6369
-20.7693
-21.9908
34.7809
48.3171
51.1654
51.7796
50.476
40.3197
42.1348
-97.0169
-20.0306
-21.7582
-20.8637
-20.7359
-20.2028
-20.1535
-20.6018
-20.7578
27.2705
35.8905
49.1831
51.7073
52.2678
50.971
41.2958
43.6013
-25.321
-20.1154
-21.8372
-20.829
-20.684
-20.1501
-20.115
-20.5846
-44.2481
30.3251
37.0548
49.8952
52.1847
52.6973
51.3559
41.8943
-20.9835
-26.1568
-20.1783
-21.8938
-20.8031
-20.6369
-20.1109
-20.0973
-30.3955
-51.9936
33.3996
38.0005
50.4726
52.606
53.0537
51.5786
-24.8721
-20.777
-26.9935
-20.2457
-21.934
-20.7838
-20.5999
-20.0928
-94.0435
-30.993
-60.5065
35.6645
38.8851
50.9447
52.9548
53.255
-25.3459
-25.0532
-20.7787
-27.7791
-20.3262
-21.9648
-20.7681
-20.5819
-48.9836
-103.719
-30.708
-68.3308
37.5641
39.8278
51.3172
53.1519
-27.4987
-25.3708
-25.1815
-20.806
-28.5057
-20.4158
-21.9889
-20.7566
-45.7039
-48.4491
-112.74
-30.1586
-75.4071
39.3433
40.7779
51.5296
-27.2303
-27.5247
-25.3867
-25.2409
-20.8413
-29.2085
-20.5054
-22.0047
-41.5738
-45.5562
-47.2378
-120.846
-29.4804
-82.3694
41.0087
41.3853
-30.5483
-34.2782
-27.2379
-27.5548
-25.3878
-25.2626
-20.8853
-29.8782
-20.5678
-38.267
-41.7378
-45.5417
-45.9566
-127.999
-28.6559
-90.027
42.2471
-28.1868
-30.4812
-34.309
-27.2067
-27.5608
-25.388
-25.2595
-20.9126
-30.2911
-33.8464
-38.3886
-41.8283
-45.6027
-44.6631
-134.733
-27.8882
-96.5398
-34.618
-30.9782
-27.8688
-30.5521
-34.2397
-27.1583
-27.5474
-25.3905
-25.252
-20.9019
-33.7441
-38.4696
-41.8978
-45.6842
-43.3628
-141.796
-27.7823
-34.9758
-35.8008
-31.762
-30.7785
-27.7509
-30.5077
-34.1582
-27.1317
-27.5244
-25.3974
-25.2592
-35.2408
-34.074
-33.8623
-38.5346
-41.9492
-45.7508
-42.1561
-147.121
-35.1536
-35.8482
-31.7157
-30.5064
-27.6503
-30.3764
-34.0498
-27.125
-27.5013
-25.4064
-35.3258
-34.1496
-33.9887
-38.568
-41.9801
-45.7476
-41.3804
-35.2999
-35.7409
-31.6814
-30.2655
-27.5756
-30.1885
-33.9325
-27.1292
-27.4916
-35.4436
-34.1573
-34.0845
-38.5794
-41.9888
-45.6722
-35.4562
-35.6247
-31.653
-30.0521
-27.5267
-29.9807
-33.8413
-27.1351
-35.5339
-34.1647
-34.1407
-38.57
-41.9728
-35.6292
-35.536
-31.6252
-29.8544
-27.4761
-33.8065
-35.5983
-34.1716
-34.1477
-38.5471
-35.7907
-35.4779
-31.5961
-29.684
-27.4102
-35.6455
-34.1825
-34.1187
-35.4412
-31.5624
-29.5731
-35.6824
-34.198
-35.4227
-31.5391
-35.7072
-34.2147
-3.24592
-3.63079
-3.68281
-4.19681
-4.17464
-4.74422
-3.1754
-3.64229
-2.71872
-3.96215
-4.02911
-4.58257
-4.67172
-5.33578
-5.33732
-6.00512
-8.06814
-8.83666
-8.89848
-9.81519
-9.63723
-5.98533
-6.66305
-4.71283
-5.33219
-3.56049
-4.09328
-2.60613
-3.01762
-2.13465
-10.5689
-10.2026
-4.15348
-4.34034
-4.93679
-5.04421
-5.65696
-5.87294
-6.63752
-6.66357
-7.42931
-7.37089
-8.08267
-8.83288
-9.61856
-9.60852
-10.4498
-10.6308
-11.6346
-11.5289
-6.60732
-7.32359
-7.29122
-8.08209
-8.01428
-8.8042
-9.29234
-5.21742
-5.84898
-3.91413
-4.47655
-2.83585
-3.26721
-1.94172
-2.27296
-1.46086
-8.67411
-9.07614
-12.4998
-13.422
-10.1386
-10.9283
-11.8956
-4.23766
-4.47185
-5.09514
-5.33619
-6.03502
-6.14478
-6.88776
-7.18565
-8.0146
-8.09771
-8.89405
-9.6664
-10.5086
-10.4649
-11.3052
-11.2601
-12.2288
-12.3963
-13.0998
-13.4253
-14.5252
-14.0353
-14.9092
-5.69063
-6.47573
-6.58348
-7.26254
-7.45623
-4.27031
-4.89191
-3.01258
-3.50789
-2.01577
-2.36251
-0.703015
-1.18492
-1.44941
-7.12549
-7.89905
-7.64748
-8.80016
-10.1681
-14.486
-12.5422
-13.9356
-11.4016
-12.5704
-4.15016
-4.49881
-5.1638
-5.45801
-6.18225
-6.48155
-7.2125
-7.41562
-8.22848
-8.50201
-9.18478
-9.66838
-11.2127
-10.8346
-12.2381
-12.2534
-13.3222
-13.2482
-13.8862
-14.6735
-15.1385
-15.1986
-16.1153
-15.8289
-15.6715
-16.2355
-16.3609
-17.562
-4.90715
-5.73071
-5.33338
-6.04836
0.142182
-0.340182
-3.35218
-4.08551
-2.02917
-2.50959
-0.516232
-1.08601
-1.35684
1.03102
0.58532
-5.67176
-6.46393
-6.31801
-18.705
-17.6336
-19.3422
-7.67313
-8.98272
-10.2803
-11.4595
-13.747
-14.8805
-16.5575
-15.8939
-12.7157
-13.8041
-3.91408
-4.33894
-5.05826
-5.45965
-6.21872
-6.55714
-7.31839
-7.64124
-8.73926
-8.41118
-9.62105
-9.81817
-10.7203
-11.2804
-12.8969
-12.3754
-13.8428
-13.9611
-14.6458
-15.2244
-15.0922
-20.6742
-21.0842
-19.8246
-16.2
-15.9706
-16.9609
-16.9215
-17.2807
-18.0895
-17.6742
-19.8153
-19.0681
-29.4937
-30.2225
-29.8768
-32.502
-31.3189
-30.8586
-31.0884
-30.776
-3.67915
-4.26428
-3.72099
-4.40805
0.510466
-0.0600936
-2.11791
-2.69315
-0.254076
-0.941804
-1.26797
1.92351
1.54964
1.5742
1.06374
-3.9503
-4.83746
-7.67664
-4.49673
-6.02226
-29.1904
-27.6123
-23.5571
-22.798
-21.4135
-17.0136
-18.4122
-19.1839
-20.6405
-7.89714
-8.99926
-8.85273
-10.3856
-11.7217
-13.0266
-14.332
-15.1542
-16.5303
-29.9031
-30.8711
-32.4361
-30.7907
-32.2266
-33.892
-32.743
-31.8984
-33.1647
-32.9861
-3.39014
-4.00849
-4.8194
-5.31787
-6.14173
-6.56997
-7.48432
-7.7739
-8.57465
-8.85307
-10.2452
-9.77538
-11.0992
-11.2575
-12.2719
-12.846
-12.8838
-14.2252
-13.8145
-14.9884
-15.6974
-15.6461
-16.6715
-16.7533
-16.3876
-22.0333
-22.9565
-25.0855
-24.2158
-21.6894
-20.7718
-17.6978
-17.7791
-18.3885
-18.654
-20.6363
-19.4415
-19.116
-25.6768
-27.6708
-27.2291
-27.7824
-27.163
-29.252
-29.5026
-30.0813
-32.1822
-31.2035
-31.6295
-31.344
-31.7513
-31.8621
-32.4002
-32.0805
-31.6312
-31.7506
-2.04831
-2.55814
-1.84377
-2.5438
1.00961
0.317069
0.146431
-0.662734
-0.968641
2.76478
2.45261
2.58172
2.1546
2.24386
1.69472
-1.70578
-2.33239
-3.65053
-3.98219
-5.51624
-6.41316
-2.94641
-24.8108
-27.2644
-26.1766
-30.0216
-28.6887
-24.0928
-25.2862
-23.4651
-21.4948
-6.47708
-21.2387
-17.442
-19.8223
-18.7788
-7.55949
-8.53772
-10.0853
-10.5762
-12.1437
-12.5932
-14.3825
-15.374
-17.1313
-30.1229
-31.0016
-29.9902
-32.9847
-32.703
-34.2818
-32.4622
-32.3242
-31.5178
-32.0578
-33.2865
-32.9813
-2.72715
-3.37158
-2.13887
-2.19676
-4.32955
-5.03811
-6.00764
-6.48795
-7.49903
-8.03253
-9.11833
-9.23691
-10.5307
-11.3784
-10.2575
-12.0176
-12.6195
-13.5727
-14.0945
-14.9096
-13.5621
-14.1007
-15.5956
-15.6353
-15.6599
-16.476
-16.3507
-16.451
-16.4369
-17.1853
-17.2966
-18.0034
-18.3697
-22.6257
-23.6166
-24.699
-24.0706
-22.2987
-21.6064
-19.3372
-19.6443
-21.4343
-20.4567
-20.3664
-25.5171
-25.16
-25.5713
-28.3525
-27.2058
-29.0681
-28.8401
-30.54
-27.6283
-30.0972
-30.3888
-31.8282
-31.4267
-31.0733
-32.3264
-30.4027
-31.4992
-0.447006
-0.250221
-0.654647
0.02658
1.68476
0.926412
0.734914
0.287566
3.58245
3.34702
3.60375
3.24963
3.45459
2.96511
3.0763
2.41722
4.30781
4.16588
4.89193
4.91475
5.47967
5.33386
1.08558
-0.514647
-1.29951
-1.34175
-5.19538
-3.45038
-1.5756
-0.795344
-28.7036
-28.2714
-26.6537
-22.4932
-25.7654
-24.2936
-4.91
-6.66219
-8.43726
-22.7887
-18.6247
-21.2127
-19.9831
-10.1923
-11.2517
-12.7708
-13.275
-14.8995
-15.4482
-17.4561
-29.0442
-32.7869
-33.4226
-32.2915
-31.3101
-34.3236
-35.3258
-34.493
-35.3091
-33.1503
-33.1283
-33.7087
-34.4418
-34.0563
-1.31337
-1.82502
-4.31696
-4.37166
-3.13015
-3.73059
-5.69142
-6.24903
-8.05076
-8.09699
-9.19468
-9.67039
-11.2754
-11.2279
-12.1143
-12.7024
-13.669
-13.9917
-14.9165
-14.7594
-15.5106
-16.1129
-17.0367
-16.691
-17.319
-16.9805
-17.6932
-17.7275
-17.9607
-17.8898
-18.68
-19.0217
-19.6714
-20.05
-24.2193
-22.9582
-23.844
-23.2659
-22.2577
-20.6511
-21.6447
-21.0747
-21.4849
-26.3887
-24.9485
-27.4624
-25.9355
-27.9537
-28.1804
-27.4725
-31.0981
-28.9264
-32.9837
-31.1013
5.53864
5.80877
0.937471
1.14199
2.4395
1.68923
1.82152
2.12567
2.42184
4.50847
4.21141
4.51571
4.12582
4.39819
3.88196
4.12918
3.45824
5.35363
5.21136
6.02204
6.033
6.63206
6.44333
2.96234
2.53489
2.46635
0.681791
-3.10264
-1.53244
0.14437
1.39326
-24.7853
-26.81
-28.0092
-3.18121
-5.2156
-7.08289
-9.13874
-11.0027
-22.6428
-24.485
-18.9067
-21.7459
-13.0306
-14.2435
-16.4311
-16.8464
-19.0902
-28.8954
-31.1346
-30.6948
-33.8543
-31.3622
-32.9551
-34.7697
-34.7693
-35.4698
-33.5295
-34.5971
-34.8241
-35.2311
-34.0468
-1.11873
-3.10768
-2.28273
-1.92887
-2.37126
-4.07375
-4.9733
-5.35536
-4.07639
-5.21516
-7.91597
-8.15883
-9.57588
-9.05059
-11.9395
-12.1849
-14.3294
-13.2977
-13.278
-14.0697
-14.286
-15.3112
-15.6207
-16.3273
-16.7444
-17.7602
-18.3192
-18.2203
-17.9997
-18.5865
-18.7006
-18.2655
-19.5404
-19.4506
-19.4756
-19.9387
-21.3649
-24.7538
-24.3199
-23.3045
-22.1141
-21.5301
-22.9521
-22.6222
-22.0839
-25.5907
-25.4591
-27.4211
-26.5522
-27.7078
-27.8248
-27.949
-27.645
5.54598
5.92715
6.58897
6.93022
3.64163
3.01875
3.33151
4.38174
4.28328
5.67191
5.39445
5.84892
5.26863
5.54033
4.88503
4.99265
6.4897
6.59671
7.34005
7.2957
8.01685
7.68694
6.15543
4.91557
4.23662
3.4103
4.65431
7.65325
-1.38439
0.278772
2.41961
4.09701
-1.23015
-28.6332
-26.4847
-2.97498
-5.26834
-7.45729
-9.78711
-12.8663
-14.974
-14.4775
-21.3763
-26.0307
-23.6717
-17.8404
-18.4127
-21.0289
-32.0764
-30.0409
-35.1527
-33.6913
-35.7713
-35.8096
-36.29
-35.4082
-35.5233
-34.1934
-2.96189
-2.40499
-2.71753
-3.80314
-3.92578
-3.30224
-4.04317
-5.79636
-6.843
-8.02892
-6.40469
-8.10699
-8.09579
-8.95645
-12.9796
-12.2199
-13.7296
-13.8965
-16.7879
-15.0264
-14.9023
-14.1798
-16.1609
-17.6109
-17.141
-18.3706
-18.5555
-18.3426
-19.1782
-18.3719
-19.5182
-20.0208
-20.0726
-18.8874
-20.6723
-20.0734
-20.5786
-21.7557
-22.7893
-25.8162
-25.0827
-21.8762
-21.9966
-22.9009
-22.4479
-26.0446
-25.8585
-27.1046
-26.2774
-27.6022
-27.0244
-3.52453
-3.58794
5.33696
5.84532
6.47933
6.94262
7.66377
8.21516
5.93674
5.79175
6.7357
7.81349
8.42318
7.10385
6.82604
7.31723
6.6016
6.98221
8.08868
8.08856
8.91689
8.82801
9.67025
9.11299
9.63745
7.68153
6.26793
6.63213
10.3777
9.55664
1.01542
2.95383
5.67359
7.28249
1.34193
-0.673943
-2.81146
-32.5143
-28.7717
-5.77804
-8.82383
-12.1891
-14.4489
-18.3939
-19.8284
-23.5839
-27.3936
-30.4523
-25.1544
-37.7249
-35.213
-38.5731
-38.8513
-39.2728
-38.1086
-39.1573
-38.3116
-4.27588
-4.00986
-5.15744
-5.22625
-6.07547
-5.42179
-6.28764
-7.71801
-8.60598
-9.71066
-8.444
-9.7038
-13.7158
-11.0149
-12.1967
-13.1328
-14.1216
-14.0966
-15.2848
-17.5689
-16.0669
-17.4424
-15.9045
-18.7198
-18.0556
-20.3243
-18.7624
-19.6465
-18.9584
-19.1355
-19.0221
-20.0185
-20.416
-20.3669
-20.531
-20.1746
-21.3432
-21.1702
-21.8745
-22.1662
-23.4165
-22.3351
-24.4363
-23.5145
-23.6683
-25.2541
-24.9845
-25.619
-25.0963
-3.96962
-4.14321
-4.96278
-4.97736
4.89106
5.4914
6.07468
6.64268
7.29592
7.96293
9.50869
8.81025
4.26664
4.88398
10.5926
10.2088
8.3719
8.90379
8.89813
8.56639
9.14997
10.082
9.89421
10.8811
10.6277
11.2734
10.4376
12.0966
12.5921
13.4431
12.5793
9.35096
10.3837
6.28129
4.27685
10.6657
9.09455
5.24978
2.71942
-1.24506
3.60345
-4.1737
-6.89631
-37.6653
-33.9462
-11.2149
-15.7192
-22.5879
-24.4367
-33.6075
-38.5549
-32.8655
-40.0561
-40.1606
-41.7197
-41.1782
-42.4648
-41.1605
-5.82952
-6.27283
-6.93981
-7.1001
-8.14571
-7.57005
-9.01229
-9.86164
-10.8745
-11.9171
-10.8859
-11.9217
-14.8413
-13.8833
-13.1861
-14.1678
-17.7725
-14.9721
-15.3148
-16.9481
-16.4471
-18.2113
-17.5176
-17.8127
-17.8391
-19.3172
-18.8142
-19.9261
-20.1169
-19.7134
-19.7867
-19.5007
-19.4637
-20.4533
-20.6237
-20.6928
-21.0349
-20.4621
-20.7018
-20.3003
-21.8396
-21.3496
-23.624
-22.4727
-24.8209
-23.5631
-21.8942
-25.1024
-24.6014
-4.25641
-4.48741
-5.19002
-5.41169
-6.17918
-6.38938
5.38571
6.07014
6.62479
7.36394
10.8194
9.01126
9.97646
8.13395
3.53251
4.12773
4.52506
5.22394
2.72019
3.31091
1.86013
2.43024
12.5972
11.2472
10.8665
11.8516
11.1175
11.9154
12.3877
12.0626
13.2517
12.4736
12.78
12.0873
11.9026
14.0742
15.0234
15.2649
16.5459
15.9713
13.7449
13.0905
10.0423
8.12243
14.4236
13.0936
8.91754
6.52361
-0.338496
-5.23709
6.46822
2.59485
-8.62201
-14.04
-45.4936
-42.8901
-23.2682
-31.7556
-40.8879
-46.31
-39.8159
-46.5127
-44.4705
-46.5787
-46.2468
-7.34976
-8.14226
-10.2955
-10.3689
-9.39426
-9.4057
-11.1454
-12.1634
-13.079
-13.9293
-13.4556
-14.1667
-16.0183
-15.0058
-14.7024
-15.2934
-18.0291
-17.8743
-16.9312
-18.3758
-16.929
-17.42
-18.6676
-18.9724
-18.2248
-19.4561
-19.4388
-20.6804
-20.2696
-20.2718
-20.1972
-20.1402
-20.7639
-20.7287
-20.5583
-20.7428
-20.6373
-20.4165
-21.2074
-20.5917
-21.2827
-23.655
-21.4741
-21.8078
-25.1754
-21.7164
-7.75905
-4.21374
-4.50953
-5.23143
-5.57642
-6.32601
-6.63544
-7.32624
-4.18822
-4.4752
-3.99061
-4.35267
-3.66244
-4.06627
0.999235
1.49235
0.14238
0.564686
-0.693483
-0.319908
-1.44513
-1.16713
-3.25853
-3.70176
-2.7252
-3.19143
-2.12808
-1.92235
-2.60433
5.69241
6.54654
7.17849
8.15377
10.0919
11.0196
8.97843
3.60318
4.29667
4.67358
5.43421
2.59122
3.24993
1.52339
2.12797
10.8862
13.5848
14.9985
13.7235
14.2236
13.8432
15.3961
14.7669
15.8244
14.9626
13.1422
13.3447
11.8691
16.4372
16.8014
17.1483
18.4922
18.3644
20.0893
20.0899
17.7335
17.2831
14.4038
12.3406
18.929
17.5933
12.6524
9.80408
-10.5543
-1.33873
-8.99272
8.3853
2.89194
-20.52
-24.8583
-47.97
-50.338
-35.6491
-66.0241
-55.9176
-54.3653
-47.0301
-8.8045
-9.57291
-11.707
-11.8948
-12.0001
-10.7176
-11.4613
-13.5251
-13.9986
-15.1059
-15.3916
-15.0089
-15.9804
-15.678
-16.3764
-17.1861
-16.2461
-19.4228
-18.874
-17.7269
-18.0844
-18.8927
-18.5419
-19.5074
-19.4554
-20.3976
-20.4058
-20.574
-20.4707
-20.9516
-20.9361
-20.8541
-21.1641
-20.8934
-20.9762
-20.9467
-20.6488
-21.0694
-20.6537
-20.4975
-24.796
-20.7209
-9.10707
-7.58391
-8.39288
-5.12763
-5.53713
-6.2511
-6.64335
-7.31363
-4.9018
-5.29937
-4.61782
-5.06315
-4.20662
-4.68117
0.49027
1.00592
-0.481598
-0.0617115
-1.43839
-1.06217
-2.2358
-2.01417
-3.65903
-4.17182
-3.006
-2.78898
-3.55083
5.86955
6.89506
7.45326
8.72946
9.54702
3.47658
4.25568
4.52086
5.42522
2.19437
2.91446
0.880357
1.54913
8.93779
11.2184
9.77534
17.2388
16.9909
16.4431
18.2499
17.4589
18.0426
15.9735
14.3296
14.0975
12.2725
20.2416
18.9362
19.0987
21.9499
21.8838
23.9662
24.0696
22.1814
22.3314
19.1416
17.1103
24.1611
22.6567
17.4517
13.8709
-13.2006
-21.7787
-2.24924
-12.1021
11.1018
3.37719
-28.9578
-30.769
-40.5901
-88.0962
-80.3691
-10.0492
-10.6885
-11.6252
-12.7157
-13.4405
-13.207
-13.2445
-12.6657
-16.0332
-16.618
-17.2016
-17.2174
-16.4482
-17.7421
-17.0522
-17.894
-18.2164
-18.5564
-18.2504
-18.0681
-19.7488
-19.417
-18.8844
-19.0888
-19.7537
-19.4581
-20.1562
-20.434
-20.6424
-20.6633
-21.1703
-21.0041
-21.0396
-21.1585
-21.3942
-21.352
-21.4025
-21.3282
-20.0126
-21.5894
-20.8314
-30.2172
-9.04444
-9.89517
-7.73243
-8.62645
-5.97447
-6.44368
-7.29527
-5.77214
-6.28683
-5.3132
-5.89451
-4.68172
-5.26806
-0.256793
0.223711
-1.33288
-0.913886
-2.38874
-2.01809
-3.21913
-3.036
-4.02483
-3.85165
-4.61138
5.77101
7.01207
7.64161
7.18984
3.00309
3.87768
4.05551
5.09834
1.49545
2.27893
0.00998117
0.794558
9.28735
7.84064
11.602
10.0802
17.4609
17.4246
21.0669
20.3187
19.6558
18.7301
21.3937
21.0739
12.416
16.8183
15.2396
14.1313
23.3776
23.2563
25.8111
25.5316
27.0571
27.9211
26.5287
28.0148
24.0449
22.3469
28.7692
27.5436
23.686
19.7734
21.5737
-18.8558
-28.667
14.0531
-6.01263
-17.6854
-32.4295
-28.5673
-13.8436
-10.2152
-11.0371
-11.7307
-12.7172
-13.5965
-15.8987
-14.4704
-15.3553
-17.6881
-17.2392
-18.7452
-18.8111
-17.2564
-18.5719
-19.0892
-19.2026
-19.3563
-18.9371
-19.244
-19.4967
-19.3939
-19.351
-20.2227
-20.0235
-19.7603
-19.839
-20.1589
-21.0469
-20.5757
-20.7631
-21.093
-21.1078
-21.2588
-21.2514
-21.0583
-21.1736
-21.8582
-21.1548
-9.09771
-9.81615
-7.19854
-7.74003
-8.63809
-6.59872
-7.23823
-5.91427
-6.57175
-5.18181
-5.85401
-1.20335
-0.724996
-2.43303
-1.98616
-3.54256
-3.23906
-4.36918
-4.2275
-5.0565
7.10493
5.32782
6.21114
5.82716
2.31205
3.19716
4.16783
3.38231
0.712708
1.52918
-0.998508
-0.213719
9.06776
7.08383
5.74614
11.3911
9.63998
17.916
20.6902
19.594
20.46
24.9508
23.5946
24.7895
22.6733
22.949
14.9555
12.4513
17.6636
16.3104
19.257
27.6158
27.146
30.8651
33.3159
30.4059
31.1769
31.783
32.4787
33.4587
28.7876
29.7446
29.9149
25.5528
27.1661
25.8577
21.4418
-21.5794
-39.7422
-36.199
-15.8404
-10.2797
-14.3899
-14.8855
-11.3049
-11.5931
-12.4439
-12.9814
-13.6723
-14.313
-16.1822
-15.9586
-17.546
-17.2528
-19.7559
-19.7993
-18.7247
-18.9644
-20.1944
-20.0084
-19.3651
-19.3411
-20.0045
-20.0903
-20.1312
-20.6619
-20.5212
-20.3406
-20.5589
-20.9247
-20.8011
-21.1012
-21.0362
-21.0023
-20.9779
-21.0237
-21.0601
-10.2806
-8.00846
-8.60061
-9.36104
-9.6647
-7.30619
-8.02454
-6.5065