/*--------------------------------*- C++ -*----------------------------------*\
  =========                 |
  \\      /  F ield         | OpenFOAM: The Open Source CFD Toolbox
   \\    /   O peration     | Website:  https://openfoam.org
    \\  /    A nd           | Version:  8
     \\/     M anipulation  |
\*---------------------------------------------------------------------------*/
FoamFile
{
    version     2.0;
    format      ascii;
    class       surfaceScalarField;
    location    "4000";
    object      phi;
}
// * * * * * * * * * * * * * * * * * * * * * * * * * * * * * * * * * * * * * //

dimensions      [0 3 -1 0 0 0 0];

internalField   nonuniform List<scalar> 
6926
(
-1.05308
0.0710305
-0.652857
-0.575153
0.174931
-0.941648
0.0740225
-0.11292
-0.539937
0.0688488
-0.756922
-0.752278
-0.0144386
-0.635251
-0.0481787
0.234424
-1.05805
-0.0648821
0.013168
-0.583537
0.177766
-0.717704
-0.644037
0.466534
-0.586708
0.133342
0.0251472
-0.66014
-0.828081
-0.244412
-0.409726
-0.0679182
0.0526745
-0.568293
0.156254
-0.873957
-0.555702
-0.534205
0.000171151
-0.533756
0.257372
-0.680506
-0.165025
-0.767876
-0.57277
-0.794975
-0.217313
-0.210007
0.0233044
-0.38159
-0.191513
-0.574196
-0.122765
-0.751192
-0.896195
0.12969
-0.131169
-0.592822
0.119814
-0.423187
-0.812396
0.0723854
-0.511072
0.000171891
-0.528537
-0.00504798
-0.53411
-0.00349282
-0.102482
-0.938838
-0.388219
0.252407
-0.436958
-0.563079
-0.0424529
-0.10126
-0.471844
-0.185245
-0.511715
0.0459095
-0.797102
-0.113066
-0.705417
0.225661
-1.06843
-0.0014994
0.0947429
-0.787325
-0.00262165
-0.533632
-0.788735
-0.0079564
-0.612508
0.000175784
-0.525005
-0.00335962
0.153228
-0.139928
-0.827723
-0.818035
-0.527905
-0.0112528
-0.534207
-0.0323652
-0.0383869
-0.648044
-0.523781
0.0443703
-0.420776
-0.236312
-0.886582
-0.834037
0.0369351
0.000159565
-0.699401
-0.00617637
-0.867638
0.0248691
-0.983455
0.0335757
-0.727568
-0.256033
-0.533914
-0.0107255
-0.522747
-0.753593
-0.131761
-0.14349
-0.759402
-0.849007
0.000187165
-0.528043
0.00321352
-0.519904
-0.0113603
-0.174013
-0.682409
-0.389417
-0.612319
-0.528254
-0.0172059
-0.534173
-0.0219734
-0.0363951
-0.567278
-0.890082
0.0560451
-0.223853
-0.625794
0.143547
-0.0273551
0.275693
-0.391885
-0.332064
-0.558019
0.359358
-0.547875
-0.0835478
0.000177117
-0.61603
0.840962
-0.470747
-0.453763
-0.0328525
-0.958586
-0.0773632
-0.642654
-0.375951
0.0707688
-0.422385
-0.0980927
-0.533891
-0.0226722
-0.521967
-0.00891512
-0.513654
0.584358
-0.592636
-0.0690857
-0.42533
-0.5122
-0.437887
0.252505
-0.292857
-0.349065
0.0160367
-0.522934
0.461579
-0.65956
-0.0258716
-0.387626
0.000197528
-0.54668
0.0188245
-0.510652
-0.00603867
-0.51625
-0.0233639
-0.132558
-0.586246
-0.209274
-0.535603
-0.532877
-0.0185015
-0.0516417
-0.53761
-0.301366
-0.0149851
0.288996
0.869893
-0.234842
0.300144
0.00805341
-0.0535823
-0.346356
-0.284695
-0.00861797
-0.129034
-0.472423
-0.687053
-0.0295156
0.000197834
-0.586712
0.121513
-0.621776
-0.575132
0.242882
-0.991438
-0.0208535
-0.551032
-0.0688964
-0.544593
0.0134374
-0.533916
-0.034868
-0.521695
-0.0225195
-0.508362
-0.00238092
-0.511076
0.191058
-0.687221
0.672159
-0.357304
-0.383941
-0.0403499
-0.461781
0.0515087
-0.440923
0.000842234
-0.472268
0.0787544
-0.504955
-0.466579
0.107163
-0.41371
0.000212375
-0.580621
0.0341389
-0.529825
0.0379973
-0.524825
0.00253648
-0.528243
-0.0279984
0.0949341
-0.0988357
-0.531702
-0.542953
-0.542603
-0.0135088
0.359347
-0.406339
0.0320065
0.413502
-0.286752
-0.344299
-0.325624
-0.0893329
0.208071
-0.895123
-0.551105
0.00945735
0.000227604
-0.596397
-0.00644613
-0.605872
-0.641764
0.0601854
-0.748556
-0.000269104
-0.537325
-0.00140932
-0.543453
-0.0429902
-0.525793
-0.0408314
-0.503384
-0.0173798
-0.493364
0.0130063
-0.523854
-0.188883
-0.497496
-0.494069
0.0511243
-0.0133593
-0.478689
-0.509492
-0.0243438
-0.461283
0.0344753
-0.540839
0.30676
-0.773591
0.00025155
0.000213721
-0.61063
0.0302207
-0.583767
0.088081
-0.111286
-0.375542
-0.457052
-0.0686546
-0.552052
-0.0185487
0.00471884
0.00261725
-0.539038
-0.551743
0.360358
-0.32869
0.000338417
0.000268282
-0.635157
-0.0347653
-0.418413
0.000390852
-0.325918
-0.0031777
-0.306061
-0.236257
-0.640766
-0.133745
-0.761378
0.00536282
0.000277169
-0.602037
0.00296433
-0.603474
-0.633403
-0.00539637
-0.688371
-0.0441525
-0.536163
-0.0384399
-0.549165
-0.0529979
-0.513627
-0.0641146
-0.456649
0.0143353
-0.494693
0.0282307
-0.551808
0.0543064
-0.5139
-0.467534
0.00717056
-0.514046
0.00966268
-0.481181
0.0131556
-0.464776
-0.0280949
-0.551184
-0.624779
0.0143627
-0.625071
0.000544019
-0.628611
0.0750652
-0.363019
-0.205318
-0.65048
-0.590314
-0.0303929
0.0038302
0.00332089
-0.546189
-0.566462
-0.618
-0.00680282
-0.605542
-0.0121193
-0.453631
0.000452567
-0.59075
-0.0144011
0.000514605
-0.457324
-0.0388526
-0.503465
-0.108637
-0.665874
-0.00799595
-0.753382
0.0117741
0.000327904
-0.614139
-0.0325894
-0.55911
-0.623944
-0.0420482
-0.693767
-0.0531086
-0.536052
-0.0432471
-0.559027
-0.0973195
-0.480422
-0.368773
-0.0735403
0.0840412
-0.550503
0.0266136
-0.578093
-0.0180182
-0.523977
-0.472396
-0.00509749
0.00681961
-0.482903
-0.515822
0.00921997
-0.467176
-0.0294168
-0.565014
-0.63821
0.0239615
-0.630364
-0.00730198
-0.668039
0.0926241
-0.765181
-0.0304515
0.0062244
0.00398245
-0.556396
-0.59063
-0.619336
-0.0178314
-0.606078
-0.0253766
-0.574875
-0.0154227
-0.591
-0.029479
-0.0118903
-0.56247
0.000578755
-0.496755
-0.0381544
-0.573948
-0.00804382
-0.665827
0.0780456
-0.831428
0.0925004
-0.707007
0.000367171
-0.031126
-0.435484
-0.359096
-0.295974
-0.735815
-0.0733246
-0.560047
-0.0497567
-0.582595
0.332893
-0.617625
-0.221069
-0.157893
-0.549501
0.000387526
0.0656666
-0.589556
-0.593878
0.0161518
-0.015657
-0.537737
-0.478833
0.00296061
-0.5148
-0.00158195
-0.47836
-0.00292141
-0.465837
-0.0296308
-0.58514
-0.659721
0.015643
-0.638117
-0.0289054
-0.69171
0.0191529
0.00257423
-0.0149351
-0.544035
-0.618508
-0.61373
-0.0422187
-0.602416
-0.0366908
-0.570493
-0.0359298
-0.593476
-0.0384185
-0.0324983
-0.549885
-0.00215588
-0.559736
0.000635234
-0.535545
-0.00249441
-0.579497
0.0851708
-0.672952
-0.12691
-0.704518
0.492506
-0.395558
-0.25484
-0.302074
-0.665723
-0.366067
0.0226577
0.108155
-0.526371
-0.0830671
-0.698049
-0.0594178
-0.606244
0.0557551
-0.607713
-0.527254
0.000410046
-0.600872
0.00738172
0.0274728
-0.600877
0.00891538
-0.49067
-0.558452
0.0251893
-0.0333393
-0.47021
-0.504546
-0.0267949
-0.472381
-0.0315951
-0.612963
0.0193083
-0.490354
0.414872
0.0561736
-0.699991
0.0239245
-0.625176
-0.103721
-0.0495375
-0.0104713
-0.484026
-0.648892
-0.600069
-0.0673256
-0.58223
-0.0545295
-0.555979
-0.0734267
-0.024601
-0.596048
-0.0822995
-0.506178
-0.00588021
-0.546161
0.0103005
-0.569401
0.000694298
-0.538733
0.0367386
-0.531065
-0.532694
-0.292504
0.152247
0.0035375
-0.663142
-0.0224786
-0.682039
0.105473
-0.771196
0.562668
-0.709353
0.00179882
0.0448114
-0.572981
-0.525879
0.000423639
-0.0388874
-0.603407
-0.00156673
-0.643565
0.02997
-0.610211
-0.601386
0.000923987
0.013751
-0.607246
0.0116404
-0.601688
-0.505825
0.0617739
-0.0301356
-0.501849
-0.453244
-0.123232
-0.379285
-0.0680932
-0.546436
0.960473
-0.645464
-0.315009
-0.368036
0.541164
-0.153819
-0.562196
-0.296194
0.426271
-0.184481
0.173082
0.696718
0.319929
0.192338
0.292666
-0.0587331
-0.322827
-0.614442
-0.947795
-0.474947
-0.576569
-0.688685
0.146413
-0.553686
-0.189529
0.00326133
-0.581549
-0.60556
-0.0639147
-0.316086
-0.371773
-0.00291979
-0.509139
0.0193019
-0.555162
-0.424451
0.135484
0.0237263
-0.592433
0.000750139
-0.502745
-0.439732
0.0609134
-0.490553
-0.195068
0.100155
-0.782194
0.0632701
-0.453667
-0.72155
-0.0606443
-0.00898782
-0.762208
-0.67353
-0.00521525
-0.072523
-0.495243
-0.531537
0.00044368
-0.599162
-0.00180004
0.0201535
-0.59359
-0.168
-0.455411
0.0259497
-0.622409
-0.604321
-0.00200189
0.0475947
-0.717376
-0.581462
-0.57568
-0.305453
-0.437184
-0.277253
1.01864
-0.0482193
0.373176
-0.50403
0.427087
-0.0704034
-0.551935
0.530858
-0.132743
-0.669087
-0.179042
-0.0184523
-0.703098
0.656844
-0.0177739
-0.657523
0.604485
0.0216253
-0.0438794
-0.58223
-0.0824137
0.779132
-0.410597
0.135584
0.467351
0.411033
0.0172172
0.397705
-0.0293517
-0.40193
-0.788193
-0.638695
0.208539
-0.430736
-0.397487
0.165329
-0.592804
0.0450654
-0.690529
-0.429444
0.179022
-0.174029
-0.0824014
0.238921
-0.472606
-0.457094
0.0359151
-0.525752
0.0453781
-0.576814
-0.364638
0.0603906
0.0287051
-0.620388
-0.442625
0.000793984
0.520225
-0.362101
-0.0948542
-0.104287
0.682708
-0.0865082
-0.13306
0.595874
-0.00916274
-0.550786
0.574416
-0.00200518
0.0375098
-0.799718
-0.708543
0.142092
-0.261262
-0.376073
-0.389914
0.000468283
-0.598115
-0.000604018
-0.0101985
-0.595922
0.0799106
-0.647551
-0.812684
-0.611063
-0.0133481
0.141868
-1.1365
-0.745047
0.984561
-0.10559
-0.188556
0.462203
-0.00174821
-0.611503
0.526927
-0.0481671
-0.727598
-0.0629475
-0.0407927
-0.660609
-0.74389
0.0495485
-0.0582201
-0.573559
0.00271208
0.637806
-0.00300249
-0.637515
-0.498525
0.0137547
-0.001834
0.455431
0.792886
0.329876
0.0793231
0.410296
0.00462672
0.434989
-0.00213737
-0.207393
-0.939584
-0.787048
0.277338
-0.509496
0.0405987
-0.588337
0.0950531
-0.54666
-0.260172
0.0745563
-0.36661
-0.0675905
-0.082153
0.111777
-0.502229
-0.503332
0.0567735
-0.537147
0.102098
-0.650207
-0.383041
0.000805922
0.0130722
-0.632666
0.423707
-0.466709
-0.051852
-0.0471904
-0.547128
-0.0526407
-0.0377622
0.566588
-0.00133435
0.637963
-0.00216204
0.11615
-0.915867
-0.853655
-0.0495994
-0.571662
0.766505
-0.66963
-0.0974268
0.000552028
0.000518188
-0.595947
-0.00169959
0.00124209
-0.597768
-0.243689
-0.426551
0.00061059
0.707353
-0.416077
-0.340876
0.0464544
-0.125529
-0.6407
-0.786949
-0.475077
-0.0433889
1.01381
0.84137
-0.0610598
-0.0747832
0.550939
-0.0257603
-0.633538
0.526807
0.0585635
-0.750205
0.0537195
0.640016
-0.639906
-0.00311201
-0.895643
0.151753
-0.697959
-0.197685
-0.567076
0.0622618
-0.269416
-0.366404
0.692617
0.10027
-0.00534198
0.00327702
-0.00335768
-0.637434
-0.432986
0.639953
0.145354
0.453851
0.0357679
0.442162
-0.00254657
0.580507
-0.0317048
-0.136964
-0.170048
-0.632571
-0.646674
0.123002
-0.5919
0.0769528
-0.570237
0.0872047
-0.522088
-0.309243
0.000758936
-0.37749
0.000655891
-0.0673782
0.0745858
-0.509437
-0.513937
0.0737343
-0.508783
0.00130496
-0.63844
-0.63526
0.00340016
0.425137
-0.477159
0.000169517
0.000457226
-0.529565
-0.000234254
-0.000739425
0.637923
-0.00129475
0.639814
-0.00195969
0.223786
-1.13965
0.727297
-0.272302
-0.698684
-0.0174115
0.163616
-0.562281
-0.587832
-0.588819
-0.00660961
-0.590813
0.00254627
0.00496848
-0.604436
-0.699533
0.000679991
0.0561343
-0.646337
-0.673596
-0.283401
0.0894964
-0.538662
-0.22443
0.399851
-0.577111
-0.715926
0.896987
-0.0131855
-0.0388363
0.425006
0.510817
0.559343
0.454466
0.822653
-0.026003
-0.00233444
0.544944
-0.0438974
-0.609179
0.526645
0.141098
-0.910895
0.355435
-0.638831
-0.00443279
0.47311
0.156672
-0.632894
-0.590843
-0.245649
-0.4837
-0.304828
0.0128613
-0.624915
-0.707542
0.2185
0.0326808
0.00365632
-0.00154991
-0.639541
-0.416469
0.542554
0.0566509
0.480883
-0.00295231
0.611599
-0.0336386
0.569846
-0.0566067
-0.0315749
-0.5115
-0.555247
-0.102571
0.048322
-0.484414
0.0553646
-0.570311
0.0635126
-0.546545
0.0692803
-0.516783
-0.636073
0.00157147
-0.636546
0.00112889
-0.0685716
0.0673342
-0.5082
-0.508774
0.00939436
-0.516872
-0.636495
0.00145482
-0.636981
0.000892802
-0.637375
0.000563008
-0.637711
0.000101949
-0.000527154
0.639435
-0.000915822
0.421406
0.049744
-0.39077
0.386644
0.160799
-0.191983
-0.947669
-0.0519127
-0.838754
-0.0417825
0.135336
-0.655834
-0.624646
-0.581786
-0.0292603
-0.533327
-0.0459126
0.045015
-0.522207
-0.752133
0.000687601
-0.484452
-0.161205
0.323693
-0.765469
-0.675634
-0.424205
-0.475859
0.85995
0.0127645
0.415481
0.405632
0.265074
0.575413
-0.508712
1.06806
0.45657
0.831368
-0.000401312
-0.0818607
0.534537
-0.0517891
-0.519311
0.526402
0.134007
0.130855
-0.294731
-0.634963
-0.00541834
-0.542925
-0.094401
0.276525
-0.179182
-0.488113
0.519705
0.0555295
-0.433377
0.129316
-0.320853
0.00390678
0.0105217
-0.653969
-0.283246
0.540899
-0.00336587
0.627562
-0.0189148
0.640158
-0.103951
0.538645
-0.0607146
0.0663614
-0.593137
-0.0080665
-0.455112
-0.507948
-0.0389183
0.0200467
-0.465542
0.0390182
-0.545817
0.0533216
-0.530586
0.0615398
-0.510988
-0.636498
0.00157442
-0.636967
0.00159845
0.0096851
-0.509065
-0.00287134
-0.495643
-0.532366
0.0169482
-0.637539
0.0014643
-0.638188
0.00121191
-0.638845
0.000759834
6.20599e-05
0.412484
0.008006
0.389093
0.0472947
-0.24137
0.140904
0.261265
0.221552
-0.186397
-0.0411853
-0.906484
-0.0344819
-0.845458
0.0117436
0.068324
-0.735902
-0.642162
-0.376224
-0.311851
0.115616
-0.446825
-0.315354
0.0936337
-0.300487
-0.787351
0.000735311
-0.443282
-0.0404823
-0.102716
-0.373843
-0.0768789
-0.620266
-0.486377
-0.17765
1.04812
0.734724
0.333331
0.290065
-0.272849
0.388416
0.0702105
0.484929
0.133349
0.898634
0.820535
0.0364136
0.726612
0.0120624
0.525956
-0.0513432
-0.497912
0.52611
0.105808
-0.437326
0.0702693
-0.00544467
-0.618244
-0.00619682
0.297069
-0.104369
-0.371882
-0.527854
-0.02049
-0.0989278
-0.483586
0.0040156
0.0483344
-0.706319
0.600084
-0.00365477
0.645976
-0.0217803
0.625288
-0.00404477
0.508069
-0.0733747
0.520726
-0.055484
-0.0934219
-0.538633
-0.00725423
-0.427811
-0.476184
-0.0256201
0.00964995
-0.449572
0.0321176
-0.524613
0.0488669
-0.517913
-0.0168115
-0.497048
0.542548
-0.513808
-0.0271415
0.0117566
0.0242078
-0.516325
-0.00451349
-0.466922
-0.477945
-0.0343991
-0.447588
-0.0291449
0.424792
-0.0122457
-0.022036
0.390891
0.00620766
0.11482
-0.163825
0.189909
0.42338
0.225027
-0.1673
0.240984
-0.130312
0.0418683
-0.948352
0.0355853
-0.839175
-0.752517
0.000751963
-0.271671
0.0877028
-0.551934
-0.467906
0.101015
-0.454206
0.00999772
-0.413201
-0.430826
-0.0117201
0.00881946
-0.423145
0.0317428
-0.564306
-0.548056
-0.110581
0.789901
0.187906
0.58737
0.624716
0.110008
-0.468176
0.563637
0.23787
-0.0251288
0.483755
0.0814392
0.536839
-0.051152
0.481611
-0.804699
0.715487
0.101275
0.0894345
0.521221
-0.0464538
-0.509048
0.52577
0.0890866
-0.584187
0.145408
0.125855
-0.563209
-0.00670018
0.273611
-0.322499
-0.0554818
-0.565096
0.0310452
-0.0593218
-0.411488
-0.48432
-0.0197555
-0.711344
0.200876
-0.195851
-0.0690224
-0.35552
-0.00681392
0.608355
-0.004847
0.530406
-0.0263821
0.507521
-0.06017
-0.0490561
0.514793
-0.034769
-0.529484
-0.00881938
-0.409341
-0.452886
-0.0229519
0.00632857
-0.432949
0.0306689
-0.506415
-0.0140574
-0.520667
-0.464143
-0.0374186
0.609107
-0.494712
-0.141537
0.104539
0.00420668
-0.36659
-0.457817
-0.0712944
-0.434359
-0.0526023
0.416124
-0.0374787
-0.0402707
0.297587
0.132
-0.159963
0.309249
0.0406225
0.211519
-0.146455
0.216048
-0.142364
0.230357
-0.087057
0.193168
-1.14152
0.0429462
-0.688953
-0.710301
0.00072973
-0.426439
-0.00363514
-0.122847
0.0875768
-0.516664
-0.489738
0.0645742
-0.508783
0.00118908
-0.405571
-0.423944
-0.0109203
0.0516266
-0.528356
-0.531198
-0.0130466
0.759815
0.424795
-0.107342
0.472448
0.055607
0.557094
0.0369009
0.525341
0.59958
0.0251361
0.555991
0.117654
-0.277573
0.422324
0.0931193
0.0382728
0.526922
-0.00172752
0.487414
0.286285
-0.082248
-0.0267355
0.626316
-0.82042
0.729093
0.192601
0.126845
0.0480113
0.796662
0.518281
-0.0389646
-0.400054
0.525436
-0.0362957
0.622534
0.232414
0.367889
-0.684681
0.112886
-0.357944
-0.0238765
-0.500013
0.0467382
-0.00700447
-0.424239
-0.544984
-0.00638674
-0.00565099
-0.54511
-0.146385
-0.0416072
0.510832
0.547487
-0.0219278
0.534119
-0.0529795
-0.0521514
0.506774
-0.0378553
-0.514581
-0.010087
-0.392926
-0.432304
0.0258773
-0.0268755
-0.43195
-0.340159
-0.119777
0.00892957
-0.529402
-0.518093
-0.0399931
0.506744
-0.388756
-0.259525
-0.200005
0.633419
-0.318934
-0.367087
0.173369
-0.251056
0.511164
0.190194
0.151959
0.421278
-0.169136
0.219948
-0.150355
0.207912
-0.11992
-0.937465
-0.204056
0.305847
-0.731497
-0.263303
-0.405074
0.000620652
-0.425076
-0.000634079
-0.42439
-0.00318961
-0.0836673
0.0755867
-0.508583
-0.508831
-0.00262163
-0.504972
-0.417811
0.00131944
0.0558333
-0.508602
-0.51322
-0.870494
-0.0669707
-0.887644
0.0171499
0.0185352
0.633938
-0.00779659
0.535851
0.054677
0.539318
0.0368216
0.526792
0.552875
0.028252
0.477437
0.0625411
0.387912
-0.00850718
0.0400226
0.485172
0.407323
-0.00215676
-0.0497577
0.575897
0.684394
-0.0580784
0.746017
-0.061623
0.906465
-0.160448
0.362534
-0.343713
0.945397
0.0392681
0.68514
0.452858
0.945109
0.131908
0.683289
-0.516012
0.504262
-0.0298567
-0.0295407
0.525149
-0.193555
0.169377
0.748177
-0.518133
0.131005
-0.373097
0.00814913
-0.423192
0.0456912
0.545786
-0.00394973
-0.00571096
0.435864
-0.19206
-0.390189
-0.301282
0.219012
0.0471357
-0.0421461
0.499272
0.505816
0.560938
-0.0487467
-0.0855341
0.539329
0.0313623
-0.520065
0.0241094
-0.447484
-0.395692
0.0147322
-0.034808
-0.411874
-0.511258
-0.126612
0.00338036
-0.572775
0.47158
-0.557736
-0.239682
0.53853
-0.309738
-0.0385977
0.323402
0.25613
-0.14459
0.213823
-0.163011
0.207228
-0.149671
-0.839779
-0.0957734
-0.668837
0.000459814
-0.424755
0.000300528
-0.42466
-0.000364112
-0.422411
0.00141106
0.0122371
-0.0265651
-0.494255
-0.499215
-0.508327
0.0046742
0.0343727
-0.516231
-0.500795
0.523466
-0.325294
0.164361
-0.84851
-0.0582401
-0.307894
0.0595933
0.566548
0.0523633
0.538165
0.0494727
0.526667
0.0893543
0.47746
0.48538
0.0203087
0.432915
0.0175378
0.401399
-0.00258336
0.0315221
0.451493
0.46714
-0.0315174
-0.207907
0.725726
-0.104375
0.363607
-0.407558
0.209589
-0.127325
0.667541
-0.00343838
-0.599657
-0.151613
-0.0925637
0.394547
0.682471
0.431327
0.416078
0.588437
0.154445
-0.0851496
0.685853
-0.521718
0.485481
0.00637994
-0.0261097
0.029737
0.524885
0.486811
-0.0434763
-0.392373
0.100187
-0.367516
0.0401097
0.598807
-0.0418192
-0.202907
0.282831
-0.271984
-0.252481
0.234031
-0.321522
0.148162
-0.0990523
0.519334
-0.00848853
0.408708
0.575518
-0.0849361
0.0268899
-0.532223
0.0401967
-0.4843
-0.390303
-0.0453851
-0.0721967
-0.294293
0.671498
-0.541344
-0.369835
-0.0278896
0.245347
-0.479682
0.162257
-0.458254
0.469769
-0.252237
0.260109
-0.190877
0.216128
-0.171911
-0.764791
0.000179704
-0.42475
0.000454463
-0.42492
0.000560651
-0.424245
0.00146982
-0.527626
0.0207103
0.00412243
-0.011745
-0.486633
-0.490419
0.0523944
-0.541735
-0.460145
-0.436389
0.292856
-0.822837
-0.000193818
-0.0794832
0.144266
0.523654
0.539428
0.0612385
0.526399
0.140193
0.475828
0.0746776
0.434305
0.446754
0.00646979
0.421925
-0.00298787
0.0168811
0.432028
0.42062
-0.00538368
0.29718
0.019066
0.604568
0.0562188
-0.315519
0.0887191
-0.424693
-0.0181503
0.582167
0.018963
-0.523641
-0.052665
-0.0340382
0.241962
0.594954
0.572891
0.400101
0.33912
0.190864
0.524726
0.438072
0.0402506
-0.630725
0.378801
0.258305
-0.13195
0.47984
-0.144516
-0.0724188
-0.0529407
0.52546
-0.339799
0.0724698
0.58449
-0.0507907
0.242695
0.0698109
-0.221892
0.212107
-0.262417
0.174926
-0.297165
0.105527
-0.660974
0.4131
0.197084
-0.226576
0.269712
-0.0875795
-0.0175831
-0.560025
0.146238
-0.658428
-0.316262
-0.137008
-0.473546
0.247652
-0.45523
0.268309
-0.278222
0.193661
-0.383606
0.233416
-0.225543
0.219784
-0.194533
-0.424824
0.000253933
-0.425177
0.000710936
-0.425132
0.00144717
-0.557161
0.0310048
-0.0496458
-0.0710449
-0.365942
-0.519354
0.143594
-0.702913
-0.387596
-0.52922
-0.000760877
-0.424834
-0.000183685
-0.0745417
0.525777
0.526125
0.166619
0.499973
0.18199
0.368516
0.0308708
0.420315
0.431762
-0.00336676
0.00502318
0.424017
0.43006
-0.00368216
0.453018
-0.00389181
0.513131
-0.00389396
-0.439107
-0.00139381
-0.45517
-0.00208691
0.535807
-0.00371308
-0.505081
-0.0027547
-0.00331201
0.238915
0.524839
0.525094
-0.203386
0.596162
-0.288918
0.516722
0.0419088
0.0615743
0.418393
0.101697
-0.36528
0.479069
-0.189628
0.199509
0.515579
-0.358122
0.20604
-0.236653
0.186342
-0.257248
0.135009
-0.196076
0.251055
-0.245075
0.246082
-0.0873055
0.358953
-0.138311
-0.558722
-0.0242652
-0.386511
-0.1284
-0.369412
0.116001
-0.377571
0.228645
-0.27345
0.158327
-0.313288
0.217588
-0.223347
-0.425359
0.000436528
-0.425658
0.00123695
-0.556066
0.000352235
-0.095517
-0.658021
-0.583867
-0.162853
-0.678371
-0.424766
-0.000829578
-0.425463
-8.00794e-05
0.179381
0.513363
0.51553
0.173888
0.508076
-0.00405319
0.40344
0.0059499
0.419388
0.421549
-0.000898291
0.421217
-0.00335063
0.421625
-0.00429963
0.422293
-0.00456149
-0.424527
-0.00163253
-0.424128
-0.0024854
0.422974
-0.00439424
-0.423599
-0.00328466
-0.00393679
0.208106
0.516498
0.52956
-0.250831
0.481713
-0.343872
0.277011
0.10877
0.136096
0.135958
0.444809
-0.127436
0.317141
-0.188442
0.198128
0.505893
-0.232951
0.202338
-0.227571
0.156666
-0.209342
0.227446
-0.216527
0.253267
-0.136054
0.278479
-0.21346
-0.473662
0.00441247
-0.274922
-0.09706
-0.267939
0.085357
-0.304601
0.192194
-0.248056
0.142193
-0.263287
-0.426015
0.000793888
-0.514761
-0.0400677
-0.105066
-0.715808
-0.68858
-0.492833
-0.398998
-0.425431
-0.000861651
-0.426238
0.000142587
0.179717
0.507533
0.506805
-0.0172702
0.521293
-0.00482363
0.414213
0.419989
-0.00149864
0.420849
-0.0042114
0.421777
-0.00522777
0.422671
-0.00545506
-0.425208
-0.00185543
-0.424792
-0.00290155
0.42349
-0.00521299
-0.424209
-0.00386727
-0.00465588
0.212534
0.502092
0.491262
0.133703
0.483968
-0.398461
0.379795
0.182443
-0.115351
0.296438
0.0171273
-0.00302409
0.491789
-0.204126
0.178893
-0.183723
0.207043
-0.161077
0.230621
-0.127631
0.245033
7.42214e-05
-6.04353e-05
6.30235e-06
-2.00491e-05
-0.190804
-0.379918
0.00412726
-0.193692
-0.0748475
-0.188964
0.0716883
-0.234096
9.4847e-05
0.000135636
-0.000156238
-0.510885
-0.00308238
-0.401814
-0.326834
-0.119654
-0.246267
-0.349887
-0.275347
-0.33714
-0.225984
-0.363818
-0.426254
-0.000845441
-0.499434
-0.0113084
0.0244383
0.499495
0.514701
-0.0224183
0.538887
0.418383
-0.00566886
0.420584
-0.00641192
0.422082
-0.00672625
0.423162
-0.00653485
-0.426022
-0.00208697
-0.425554
-0.0033695
0.424107
-0.00615727
-0.424913
-0.00450833
-0.00546252
0.0692576
0.555708
0.568326
0.156845
0.509565
-0.0614328
0.325877
-0.0864549
0.255263
-0.0258735
0.231742
0.362458
0.0351388
0.430777
-8.4765e-06
9.37945e-05
-0.00014571
-4.64969e-05
5.28482e-05
-3.84919e-08
-0.154087
-0.300678
0.0031151
-0.125119
-0.0618832
-0.123966
9.58282e-06
0.000540278
-0.000455
-2.53129e-05
0.000114466
0.00130324
0.00363758
-0.00493121
0.164473
-0.569369
-0.408629
-0.303142
-0.322091
-0.247652
-0.315472
-0.207153
-0.310752
-0.494361
-0.00591877
-0.477791
-0.102887
0.0432909
0.491342
0.535574
0.542821
-0.00960232
0.498825
0.0375845
0.451363
0.0407357
0.423188
0.0216396
-0.487131
-0.00931651
-0.451296
-0.0392047
0.41328
0.00375086
0.421772
-0.0139546
-0.034032
0.315115
0.397438
0.100711
0.347422
-0.0221339
0.261556
0.256946
0.289911
0.033174
0.0986349
0.230649
0.110114
0.353837
-1.2513e-05
-8.00676e-05
8.41343e-05
9.78402e-05
4.88251e-05
-0.000104278
0.000106863
-2.59464e-06
-0.132816
-0.229745
-1.73422e-06
0.000516704
-7.72797e-05
8.7495e-05
0.00162972
0.000850969
-0.0011774
0.000976684
0.00265917
-0.423043
-0.288728
-0.284008
-0.285735
-0.240818
-0.281807
-0.182709
-0.260859
-0.489688
0.00597869
-0.175493
-0.350437
0.106409
0.495047
0.632381
0.485381
0.184585
0.432055
0.0940617
0.406676
0.0470186
-0.550908
0.0519036
-0.432513
-0.157599
0.397052
0.0133743
0.401728
-0.0186307
-0.064817
0.176548
0.321601
0.0620947
0.263193
0.135664
0.219917
0.190652
0.275807
0.128032
0.238281
0.207112
0.274757
5.4897e-05
-0.000555612
0.000488223
9.01475e-05
-7.23636e-05
0.000138335
1.73937e-05
-0.000126009
0.000126902
-3.46745e-06
-0.00160295
-0.00480862
0.00646655
0.001883
0.000714781
-0.000968032
-7.54009e-06
0.000446978
-9.85199e-05
6.00249e-05
0.00123487
0.000592833
0.000749356
0.00190229
-0.303872
-0.268864
-0.270016
-0.256538
-0.217003
-0.247513
-0.166074
-0.313291
-0.510532
-0.40243
-0.0561984
0.427723
0.274436
0.416058
0.19625
0.394945
0.115175
0.378479
0.0634843
-0.29615
0.0732575
-0.179538
-0.364023
-0.0897264
0.36888
0.0229733
0.365382
-0.0151321
-0.063458
0.125419
0.258276
0.170352
0.240217
0.15382
0.247406
0.182685
0.225947
0.237734
0.219708
6.31337e-05
-0.000528586
0.000125605
-5.95895e-05
0.000146922
-2.59563e-06
-0.000128091
0.000128853
-4.19756e-06
-0.00211597
-0.000934773
0.00144789
-0.00122992
-0.00351552
0.00217122
0.000931491
-0.00121968
0.00143457
0.000515094
-8.39892e-06
0.000356866
-0.000103956
3.59161e-05
0.000950506
0.000391749
0.000577136
0.00131676
-0.303853
-0.235027
-0.24988
-0.223661
-0.42006
-0.197084
-0.355288
-0.12097
-0.212815
-0.0692149
0.311501
0.200669
0.346317
0.161434
0.3484
0.113092
0.341981
0.0699038
-0.291243
-0.10111
-0.303101
-0.0778679
0.33311
0.0318445
0.322838
-0.00486064
-0.0437208
0.162832
0.231205
0.182202
0.206577
0.223653
0.178257
-0.0025948
-0.000953881
0.00143259
5.02806e-05
-0.000453223
0.000134989
-4.76255e-05
0.000139292
-1.2993e-05
-0.000120411
0.000119922
-3.65587e-06
-0.00159214
-0.00057257
-0.000954321
-0.00251088
0.00240466
0.000682203
-0.000915639
0.00166782
0.000698281
0.00109945
0.000366124
-7.16136e-06
0.000260085
-0.000100623
1.61723e-05
0.000731932
0.000236983
0.000450369
0.00085923
-0.289877
-0.19503
-0.314111
-0.172851
-0.283404
-0.151677
-0.230477
-0.122143
0.268686
0.155636
0.297043
0.133078
0.306629
0.103506
0.305411
0.0711217
-0.242939
-0.0886485
-0.264765
-0.0560419
0.297551
0.0397042
0.284563
0.00812769
-0.0239226
-0.00335847
-0.00178996
0.00255368
-0.00192982
-0.000616185
3.37542e-05
-0.000351957
0.000129605
-3.78862e-05
0.000123465
-1.64666e-05
-0.000105523
0.000105304
-3.37545e-06
-0.00120541
-0.00032148
-0.000749047
-0.00172807
0.00260657
0.000959747
-0.00116161
0.00185366
0.00049637
0.00129426
0.000503544
0.000848997
0.000249083
-5.11255e-06
0.000164598
-9.25341e-05
3.2368e-06
0.000568529
0.000119079
0.000352818
0.000501303
-0.00444102
-0.00303801
0.00412048
-0.00250834
-0.00121159
-0.00143232
-0.000389288
1.94875e-05
-0.000241786
0.000114588
-2.89185e-05
0.000101037
-1.21246e-05
-7.92737e-05
7.58984e-05
-0.000916877
-0.000153657
-0.000589661
-0.00111891
0.00256808
0.000145216
-0.000106747
0.00204693
0.000766536
0.00143321
0.000357383
0.00100284
0.000349729
0.000653638
0.000163758
-2.90091e-06
7.49958e-05
-7.60367e-05
0.000436881
3.54012e-05
0.000276837
0.000221567
-0.0057468
-0.00496628
0.00627225
-0.00340641
-0.00213985
-0.00186027
-0.000783851
-0.00107224
-0.000233913
9.67298e-06
-0.000136779
9.11983e-05
-1.8993e-05
6.37739e-05
-0.000696991
-4.65286e-05
-0.000466104
-0.00064313
0.000828919
-0.00662368
0.00836288
0.00203428
0.000157842
0.00160941
0.000590431
0.00111267
0.000247578
0.000779429
0.000224232
0.000503619
9.67279e-05
-1.04086e-06
0.000325727
-1.29662e-05
-0.00779927
-0.0118089
0.0138622
-0.00458685
-0.00378665
-0.00256865
-0.0014313
-0.00137004
-0.000486094
-0.000794149
-0.000136536
2.65449e-06
-4.81515e-05
4.47811e-05
-0.000528959
1.60119e-05
-0.000364048
-0.000276429
-0.0002458
-0.00288068
0.00395548
0.000583501
-0.00517284
0.0016186
0.000148588
0.00127444
0.000428684
0.000862005
0.000164751
0.000600788
0.000127492
0.000374568
4.7507e-05
0.00020756
-0.000220527
-0.0066767
0.00460698
-0.00573234
-0.0065012
-0.00989427
-0.00361051
-0.00274585
-0.00191008
-0.000891204
-0.00100749
-0.000274121
-0.000591185
-7.39812e-05
-3.37041e-06
-0.000384901
3.64506e-05
-0.000480806
-0.000165009
0.000399968
-0.000272121
-0.00202504
0.000392619
-0.00394675
0.00128748
0.000135547
0.00100589
0.000285168
0.000669744
9.54559e-05
0.00045384
4.87949e-05
0.000255068
-0.00638742
-0.000642341
0.000352283
-0.00558877
0.00368974
-0.00542956
-0.00807484
-0.00282165
-0.00183498
-0.00138381
-0.000513459
-0.00072856
-0.000138609
-0.000429144
-2.93327e-05
-0.000243348
0.000279799
-0.000466557
4.81936e-05
-6.24276e-05
-0.000415067
-2.20473e-05
-0.000278936
-0.00135355
0.000248826
-0.00290807
0.0010199
0.000121201
0.000787735
0.000167701
0.000504292
4.45492e-05
0.000303862
-0.00466312
0.00809137
-0.00981647
-0.00540723
-0.000822432
-0.00466433
0.0029165
-0.00450289
-0.00639399
-0.00216757
-0.00105647
-0.000973837
-0.000266267
-0.000517475
-5.26068e-05
-0.000272685
-0.000282142
0.000728265
-0.000912673
-0.000400766
3.38985e-05
-0.000352134
5.11988e-05
-0.000271343
-0.000833352
0.000139835
-0.00202754
0.000806098
0.00010237
0.000605485
6.72237e-05
0.000348412
-0.00293287
0.00686761
-0.00859775
-0.00387854
0.00656038
-0.00455577
-0.000924091
-0.00387444
0.00228524
-0.00375021
-0.00480743
-0.00160378
-0.000433645
-0.000661675
-0.000119616
-0.000325287
2.40374e-06
0.00100983
-0.0012944
-0.000237787
0.000565311
-0.000340956
2.26886e-05
-0.000294479
7.43424e-05
-0.00025344
-0.000440486
5.48232e-05
-0.00127561
0.000640476
6.67078e-05
0.000415635
-0.00145644
0.00432124
-0.00579691
-0.00236155
0.00535174
-0.0031999
0.00519933
-0.0038382
-0.000959225
-0.00321902
0.00172099
-0.00312662
-0.00327986
-0.00110118
-3.32076e-06
-0.00044492
0.000294592
0.00103359
-0.00132581
1.95412e-06
0.000770105
-0.00019884
0.00042325
-0.000288389
1.66136e-05
-0.000242867
6.4007e-05
-0.000227344
-0.000158869
-2.51695e-05
-0.000609245
0.000482344
-3.3091e-06
0.00487317
-0.00632639
-0.00119246
0.00315239
-0.00189145
0.00404723
-0.00265259
0.00401242
-0.00322527
-0.000917308
-0.0026596
0.00121003
-0.00262941
-0.00174517
-0.000448227
0.00048609
0.000761786
-0.000953321
0.000247382
0.000788165
1.5512e-06
0.000569696
-0.000165235
0.00030012
-0.000240506
1.40319e-05
-0.000198881
3.59068e-05
-0.000190977
6.30666e-06
-0.000126902
0.00140346
0.00475051
-0.0061577
-3.93499e-06
0.00368501
-0.000975217
0.00223636
-0.00150811
0.00290403
-0.00217354
0.0029373
-0.00274251
-0.000789507
-0.00214474
0.000650954
-0.00219367
0.000494396
6.33509e-06
-1.46966e-05
0.000417462
0.000591695
0.000206645
0.000583115
1.22047e-06
0.000403273
-0.000136586
0.00019642
-0.000198292
1.31163e-05
-0.000159521
4.89686e-06
-0.000120595
0.002786
0.00405285
-0.00543599
0.00115494
0.00359119
-2.74969e-06
0.0027127
-0.000797599
0.00152619
-0.00119942
0.00195321
-0.00177986
0.00194454
-0.00234178
-0.000524766
-0.00154253
0.000254209
-0.000211703
0.000451894
0.000423911
-1.33907e-07
0.000354336
0.000443969
0.000171603
0.000412743
9.50361e-07
0.000265578