/*--------------------------------*- C++ -*----------------------------------*\
  =========                 |
  \\      /  F ield         | OpenFOAM: The Open Source CFD Toolbox
   \\    /   O peration     | Website:  https://openfoam.org
    \\  /    A nd           | Version:  8
     \\/     M anipulation  |
\*---------------------------------------------------------------------------*/
FoamFile
{
    version     2.0;
    format      ascii;
    class       volVectorField;
    location    "4000";
    object      U;
}
// * * * * * * * * * * * * * * * * * * * * * * * * * * * * * * * * * * * * * //

dimensions      [0 1 -1 0 0 0 0];

internalField   nonuniform List<vector> 
4109
(
(10.1197 0.000524311 0)
(10.1223 0.000554477 3.87773e-21)
(10.124 0.00250724 0)
(10.1218 -0.000216599 -8.35451e-21)
(10.1241 0.00150927 4.01758e-22)
(10.1269 0.00237466 6.68708e-23)
(10.1278 0.00251675 -2.46768e-22)
(10.1334 0.00402013 0)
(10.1288 0.00239408 0)
(10.123 0.000387621 -2.87622e-21)
(10.125 0.00129604 3.49733e-21)
(10.1338 0.00315026 1.53945e-21)
(10.1364 0.00798196 2.24845e-21)
(10.1368 0.00429953 -1.1158e-22)
(10.1346 0.00331795 2.37889e-21)
(10.13 0.00222758 -8.97529e-22)
(10.1243 0.000617098 5.53504e-22)
(10.1267 0.00160865 6.48992e-23)
(10.1356 0.00324095 0)
(10.1404 0.00370208 -3.23826e-21)
(10.159 0.00816971 1.84912e-21)
(10.1427 0.00842931 -5.07782e-21)
(10.1466 0.00601668 -5.76427e-22)
(10.1312 0.00229745 -2.24754e-21)
(10.1285 0.00176076 9.16588e-21)
(10.1256 0.000843273 3.10178e-21)
(10.1329 -0.00211477 0)
(10.1362 -0.00227752 8.96422e-22)
(10.1404 -0.0021651 -6.49286e-23)
(10.136 0.00326635 0)
(10.1419 0.0032415 0)
(10.1465 0.0046519 3.92712e-21)
(10.2209 -1.43058e-05 -1.01494e-21)
(10.1507 0.00705763 -7.10562e-21)
(10.1489 0.00602743 0)
(10.132 0.00234484 -1.6185e-22)
(10.1279 0.00154368 -9.10618e-21)
(10.1266 0.0007535 -5.05341e-21)
(10.1328 -0.00216532 -1.43235e-21)
(10.1249 -0.00161315 0)
(10.1421 -0.00303154 -1.33825e-22)
(10.1392 -0.00332721 4.8942e-22)
(10.1418 -0.00892374 -1.50573e-22)
(10.1365 0.00335027 -2.27643e-21)
(10.1421 0.00324194 0)
(9.48073 0.026099 7.08014e-22)
(10.135 -0.000366156 3.80792e-22)
(10.1489 0.00467339 -1.41332e-22)
(10.1496 0.00403943 6.77342e-22)
(10.2167 -0.00104773 4.62821e-21)
(10.1535 0.00534663 4.2609e-21)
(10.1308 0.00203308 -1.33644e-22)
(10.1292 0.00185376 -8.84839e-21)
(10.1281 0.00102613 1.98784e-21)
(10.1329 -0.0024985 -9.37643e-22)
(10.1266 -0.00185973 0)
(10.119 -0.000356122 0)
(10.1416 -0.00526683 1.24698e-22)
(10.143 -0.00416476 1.53526e-22)
(10.1389 -0.00347023 0)
(10.2401 -0.0027582 -1.44511e-22)
(8.88599 0.0142885 0)
(10.1362 0.00331308 -7.77527e-21)
(10.1427 0.0032444 0)
(10.1487 0.00440365 6.07869e-22)
(10.2461 -0.000855373 -3.86477e-22)
(9.74635 0.0281041 1.5829e-20)
(10.15 0.00376348 0)
(10.1508 0.00632593 -9.58144e-22)
(10.2301 -0.000410523 -5.83878e-22)
(10.1298 0.00127294 2.66485e-21)
(10.1309 0.00227173 5.90312e-21)
(10.1355 0.003885 0)
(10.1319 0.00141309 1.20443e-20)
(10.1331 0.00226788 -1.79793e-20)
(10.1339 -0.00284286 9.45684e-22)
(10.1284 -0.00195069 0)
(10.1266 -0.00176016 0)
(10.1205 -0.000466364 0)
(10.2207 0.00676828 1.69569e-22)
(10.1468 -0.00463735 7.98743e-22)
(10.1416 -0.00485388 -7.33882e-22)
(10.1451 -0.0036013 8.7439e-23)
(10.1395 -0.00389129 0)
(10.3543 0.0186203 1.21031e-21)
(10.258 1.36034e-05 0)
(9.37366 -0.042929 0)
(9.21595 0.0310665 -3.08741e-20)
(8.84227 0.0202509 -1.05154e-21)
(10.1348 0.00273666 3.0409e-21)
(10.1371 0.00330032 7.77843e-21)
(10.1432 0.00334136 0)
(10.1492 0.0045034 -3.18886e-22)
(10.1506 0.00351946 -1.98867e-22)
(10.2875 -0.00495038 0)
(9.99271 0.0122874 0)
(10.1483 0.0059527 0)
(10.2206 0.000554835 3.09688e-22)
(10.1372 0.00394775 6.34594e-22)
(10.1343 0.0032249 -1.18765e-20)
(10.1318 0.00249225 1.35242e-20)
(10.1365 0.00384762 8.54338e-21)
(10.1383 0.00452327 5.4422e-21)
(10.1347 0.00274247 6.33602e-21)
(10.1342 0.00122947 2.47138e-21)
(10.1347 -0.003328 3.95204e-22)
(10.1305 -0.00263102 3.49703e-22)
(10.1263 -0.00154049 0)
(10.1212 -0.000624439 2.82406e-21)
(10.2091 0.00183173 1.5529e-22)
(10.3295 0.0091725 0)
(10.1451 -0.00536093 -3.19628e-22)
(10.1455 -0.00427858 -3.12966e-23)
(10.1454 -0.00402476 0)
(10.1399 -0.00420311 0)
(9.01877 -0.038011 -1.43719e-20)
(10.1706 -0.0132035 -1.08003e-21)
(9.90988 -0.0362003 1.72604e-20)
(9.5675 0.039522 -7.21394e-21)
(9.04842 0.0114505 1.10079e-20)
(8.75678 -0.00318503 8.62098e-21)
(10.2989 0.0020699 1.37877e-22)
(10.1362 0.0033126 -1.39037e-20)
(10.1394 0.00391999 -2.40292e-21)
(10.1441 0.00368742 -7.68046e-22)
(10.1495 0.00479714 0)
(10.1514 0.00387841 6.33548e-22)
(10.1472 0.00612088 -2.02134e-21)
(10.0767 0.00441238 3.38601e-21)
(10.3091 -0.001611 0)
(10.2078 0.000918547 2.35684e-22)
(10.1404 0.00522323 7.03855e-21)
(10.1373 0.00406464 -4.42083e-21)
(10.1387 0.00472798 -8.35609e-21)
(10.1409 0.00583325 5.17698e-22)
(10.1372 0.00155674 0)
(10.1375 0.00380015 -5.02358e-21)
(10.1355 -0.00386068 -7.72946e-22)
(10.1307 -0.00281258 0)
(10.1268 -0.00171213 1.06617e-21)
(10.1225 -0.000758683 -2.82378e-21)
(10.2107 -0.00125644 -2.3732e-23)
(10.3261 -0.0030523 0)
(10.143 -0.00662413 0)
(10.1466 -0.00443205 -3.00834e-22)
(10.1457 -0.00420256 1.50013e-22)
(10.1404 -0.00469319 0)
(9.13905 -0.0346221 -8.23117e-21)
(9.85909 -0.0391125 5.32079e-22)
(9.08637 0.00959459 0)
(9.64725 0.0186303 -3.79576e-21)
(8.76041 0.0225423 0)
(10.2684 -0.00129086 -1.28739e-22)
(10.1399 0.00439138 1.10859e-20)
(10.1395 0.00392042 2.40273e-21)
(10.145 0.00418482 7.30255e-22)
(10.1502 0.00562635 2.36671e-21)
(10.1514 0.0044152 1.11107e-21)
(10.1467 0.006972 1.23885e-21)
(10.2021 0.00308954 -3.94677e-23)
(10.1213 0.00212869 -3.46131e-24)
(10.3213 -0.0026446 -2.35503e-22)
(10.1441 0.00620441 1.97814e-21)
(10.1402 0.00452702 0)
(10.1416 0.00627549 -3.21425e-22)
(10.1449 0.00726985 -1.70684e-21)
(10.1426 0.00640093 -2.12546e-22)
(10.141 0.00538806 0)
(10.1408 0.00178267 0)
(10.1365 -0.00456976 2.96885e-22)
(10.132 -0.00341333 1.15509e-22)
(10.1281 -0.00208698 -2.30166e-21)
(10.1232 -0.000649307 -4.76632e-22)
(10.2068 -0.00457501 -1.96816e-23)
(10.3266 -0.00412929 0)
(10.1409 -0.00766817 6.15734e-22)
(10.1483 -0.00454942 -1.47134e-22)
(10.1457 -0.00488659 -5.94282e-22)
(10.1413 -0.00561012 -3.6367e-22)
(9.77439 -0.029635 -5.55371e-22)
(8.88283 -0.0128293 0)
(9.70549 0.0164757 4.04072e-24)
(9.09609 0.00601853 4.70674e-22)
(8.76181 0.0207215 1.06675e-22)
(10.286 0.00326057 1.77059e-22)
(10.1456 0.00444208 -2.54824e-23)
(10.1462 0.00486028 2.5474e-23)
(10.1519 0.00622121 -1.22743e-21)
(10.1479 0.00758829 -1.99804e-21)
(10.1549 0.00410933 -8.85865e-22)
(10.1906 0.00624361 1.06433e-21)
(10.1074 0.00499078 -2.26997e-22)
(10.3172 0.0007815 1.36794e-22)
(10.1469 0.00536157 -9.54041e-22)
(10.1477 0.0063658 4.99181e-22)
(10.146 0.00829882 -5.01038e-22)
(10.1487 0.00754887 -6.87694e-22)
(10.1477 0.00932795 4.97033e-22)
(10.1461 0.00770727 2.48866e-22)
(10.1421 0.00501491 1.87779e-21)
(10.1449 0.000844314 0)
(10.1378 -0.0052914 -6.32956e-22)
(10.1332 -0.0038807 3.0689e-22)
(10.1295 -0.00251141 1.97456e-21)
(10.1248 -0.0008935 3.73153e-22)
(10.1929 -0.00628026 -3.46181e-22)
(10.3171 -0.00337483 -5.87359e-22)
(10.1398 -0.0078565 3.88135e-22)
(10.1495 -0.00533496 2.14515e-23)
(10.1463 -0.00649613 8.68693e-22)
(10.1428 -0.00686374 0)
(9.76131 -0.0191537 -1.31046e-21)
(8.86916 -0.00636936 6.33345e-22)
(9.07551 -0.00155583 0)
(9.68093 0.0117902 5.6607e-23)
(8.75446 0.0197221 -7.36806e-22)
(10.313 0.0116695 1.94443e-22)
(10.1528 0.00532837 0)
(10.1531 0.00567067 -9.37573e-22)
(10.1566 0.00420893 -3.05062e-21)
(10.1737 0.013057 2.21694e-21)
(10.1067 0.00388945 1.53428e-24)
(10.3164 0.00249885 -4.71127e-22)
(10.1533 0.00704747 1.12083e-21)
(10.1536 0.00847968 2.09439e-21)
(10.1501 0.00887743 2.05894e-21)
(10.1543 0.0102011 -1.42983e-21)
(10.152 0.0101461 -1.04858e-21)
(10.1498 0.0104249 0)
(10.1473 0.00744118 -2.11444e-21)
(10.146 0.00574284 -2.15759e-21)
(10.1494 0.000836567 0)
(10.1392 -0.00591778 -2.90538e-21)
(10.1345 -0.00422896 7.60764e-21)
(10.1312 -0.00287883 3.3787e-21)
(10.1263 -0.000970214 -6.36983e-22)
(10.1769 -0.00776073 -2.49852e-22)
(10.3019 -0.00404573 1.59923e-22)
(10.1509 -0.00736108 -7.58461e-22)
(10.1405 -0.00800245 1.02706e-21)
(10.1407 -0.00630831 0)
(10.1483 -0.00888121 0)
(10.1446 -0.00788205 0)
(9.82312 -0.0166321 2.88378e-22)
(8.87944 -0.00896482 4.82983e-22)
(9.68284 0.00520684 5.30465e-23)
(9.07974 -0.00894018 6.5817e-23)
(8.76072 0.0212527 -6.45542e-23)
(10.3286 0.0174211 -4.85943e-22)
(10.1584 0.00308379 0)
(10.1566 0.00473866 4.97182e-22)
(10.1652 0.0165059 7.45386e-22)
(10.1063 0.00382178 -1.1144e-21)
(10.3181 0.0080615 5.79366e-22)
(10.1571 0.0068573 -3.40268e-22)
(10.1585 0.00753801 -2.72587e-22)
(10.1553 0.01197 -4.01832e-22)
(10.1598 0.0101005 0)
(10.1567 0.013986 0)
(10.1542 0.0113764 -3.2329e-22)
(10.1523 0.0113642 2.73262e-21)
(10.1505 0.00816563 -1.12794e-20)
(10.1503 0.00586147 0)
(10.1538 0.000958231 0)
(10.1372 -0.00502901 4.09755e-21)
(10.1344 -0.00404939 -5.55971e-21)
(10.1283 -0.00111105 2.3679e-21)
(10.1395 -0.00566693 4.10118e-21)
(10.1526 -0.0104294 1.87085e-21)
(10.279 -0.00503114 -3.31649e-21)
(10.1513 -0.00928911 -7.00553e-23)
(10.1429 -0.00689641 0)
(10.1463 -0.00853862 0)
(10.1507 -0.0100349 -5.74422e-22)
(8.88511 -0.00586631 2.93739e-22)
(9.86048 -0.014235 5.12216e-22)
(9.08964 -0.0249103 8.07452e-22)
(9.68728 -0.00845204 -7.78646e-22)
(8.76629 0.0185285 0)
(10.3381 0.0272669 1.05528e-21)
(10.0158 -0.0174842 1.28205e-19)
(10.1675 0.0158635 0)
(10.1636 0.00997313 -2.37428e-22)
(10.1129 0.00561129 -1.49805e-20)
(10.3296 0.00658662 -4.26234e-21)
(10.1529 0.0130114 1.47756e-21)
(10.1558 0.0114634 -4.63938e-22)
(10.1612 0.0120506 2.90927e-21)
(10.154 0.0166794 4.60651e-22)
(10.1632 0.0145057 -8.08896e-23)
(10.1585 0.015828 -1.12352e-22)
(10.1568 0.0125605 0)
(10.1552 0.0122785 -6.1135e-21)
(10.1543 0.00894842 2.28025e-20)
(10.1549 0.00632623 0)
(10.1556 0.00430255 7.05869e-21)
(10.1572 -0.000647255 0)
(10.129 -0.000618773 0)
(10.135 -0.0035187 2.40045e-21)
(10.1319 -0.00246713 -3.65232e-21)
(10.1405 -0.00555669 2.06533e-22)
(10.1444 -0.00710888 1.59768e-21)
(10.1387 -0.0145112 0)
(10.2596 -0.00886794 1.44068e-21)
(10.1558 -0.0112524 1.25187e-21)
(10.148 -0.00901219 6.01411e-22)
(10.1531 -0.0103932 0)
(9.88879 -0.00618434 1.22173e-21)
(8.86761 -0.000117271 -6.92529e-22)
(9.10584 -0.0297977 4.08768e-20)
(9.74105 -0.0149912 -2.82111e-20)
(8.78123 0.0160337 3.20817e-20)
(10.3336 0.0299941 -1.02756e-21)
(10.0116 -0.002708 -2.12291e-19)
(10.0142 -0.0198768 5.54183e-20)
(10.0108 -0.0138461 -6.23098e-20)
(10.022 -0.0211865 -8.25131e-20)
(10.0172 -0.00651537 1.88206e-19)
(10.028 -0.0266709 7.31129e-20)
(9.97293 0.0171539 2.77592e-20)
(10.3405 -0.0152594 1.95482e-20)
(10.2798 -0.029467 -1.85253e-20)
(10.1918 -0.000113907 -1.50775e-21)
(10.2033 0.00181422 -5.93518e-21)
(10.158 0.0114339 -2.93098e-22)
(10.1574 0.017794 0)
(10.1617 0.0209372 -1.70262e-21)
(10.1652 0.0160287 0)
(10.161 0.0176573 0)
(10.1612 0.00788954 4.40278e-20)
(10.1599 0.0137789 1.11512e-21)
(10.1588 0.0130663 1.90521e-20)
(10.1589 0.00966472 -1.91882e-20)
(10.1589 0.00368842 -6.82949e-21)
(10.1583 -0.00141411 0)
(10.1604 0.000790876 0)
(10.1565 -0.00255119 1.27353e-20)
(10.1319 -0.00168324 -5.35705e-22)
(10.1355 -0.00321088 -7.51751e-21)
(10.1426 -0.00595242 -4.80757e-21)
(10.1462 -0.00745511 -5.17442e-21)
(10.1497 -0.00935512 -7.53238e-22)
(10.1389 -0.0197944 0)
(10.2597 -0.010954 -2.95799e-21)
(10.1589 -0.0122207 -1.12683e-21)
(10.1552 -0.0102457 -1.64667e-23)
(9.89173 0.000612012 7.65859e-21)
(8.76562 0.00651054 5.71201e-22)
(8.97734 0.0202605 2.60263e-20)
(10.3267 0.0113447 9.24447e-22)
(10.0008 -0.00197633 -5.61884e-20)
(10.0042 -0.00162419 5.60717e-20)
(10.007 -0.00904357 0)
(10.0193 -0.0246203 -2.26898e-20)
(10.0113 -0.0246273 8.53746e-20)
(10.0069 -0.0176255 7.21176e-20)
(10.1498 -0.00528526 0)
(10.1551 -0.0109789 7.12089e-21)
(10.1567 -0.0250555 5.73391e-21)
(10.0258 -0.00783273 -2.88638e-21)
(10.0314 -0.0193435 -1.90207e-20)
(10.0242 -0.0120516 4.78653e-20)
(10.0341 -0.0269429 -6.51037e-21)
(10.0258 -0.0304484 2.76686e-20)
(9.51769 0.055345 -6.07643e-20)
(10.3523 -0.0333515 -4.3936e-21)
(10.3281 0.00760413 2.70544e-20)
(10.273 -0.00105311 -9.82529e-21)
(10.1691 0.0134178 -1.72769e-22)
(10.1652 0.00724733 1.74825e-21)
(10.1565 0.0225337 -1.3327e-20)
(10.1694 0.0209705 0)
(10.1676 0.0183133 0)
(10.164 0.0197396 -1.10145e-21)
(10.1639 0.0102047 0)
(10.1635 0.0149993 0)
(10.1629 0.013589 -6.5115e-21)
(10.1657 0.00202426 0)
(10.1645 0.00461469 -3.1914e-20)
(10.1608 -0.00498666 -7.69243e-20)
(10.1647 -0.00158559 5.2015e-20)
(10.1657 -0.0165251 0)
(10.1735 -0.033946 1.61313e-20)
(10.1346 -0.00158276 7.96141e-21)
(10.1383 -0.00393471 -4.08932e-22)
(10.1454 -0.00665244 -1.99959e-20)
(10.148 -0.00788882 1.12952e-20)
(10.1514 -0.00974175 2.12971e-22)
(10.1569 -0.0104431 -1.63151e-22)
(10.1441 -0.0206466 8.44713e-22)
(10.2491 -0.0144513 1.06023e-21)
(10.1609 -0.0117168 -4.73454e-22)
(9.93291 -0.0196991 -1.18311e-20)
(8.57839 0.00820374 1.8252e-20)
(10.0004 -0.00286529 -1.16443e-19)
(10.003 -0.00951543 4.94069e-20)
(10.0163 -0.0308113 -2.80318e-20)
(10.0093 -0.0286161 1.95718e-21)
(10.0052 -0.0203416 -1.37682e-19)
(10.1443 -0.0173723 -1.29359e-20)
(10.1378 -0.00783694 1.10832e-20)
(10.1448 -0.0341344 0)
(10.1839 -0.0562243 -3.06234e-20)
(10.1624 -0.045158 -1.68207e-20)
(10.0401 -0.0164013 1.67927e-22)
(10.0392 -0.0109813 -2.69453e-20)
(10.0414 -0.0308658 -1.91595e-22)
(10.0335 -0.035387 -6.2882e-21)
(10.0237 -0.0376735 -2.91149e-20)
(8.65196 0.0442892 -4.4867e-20)
(9.83377 0.10353 1.29698e-20)
(10.3641 0.0416161 -1.30677e-20)
(10.3117 0.0226791 1.03971e-21)
(10.1779 0.0168208 4.74832e-21)
(10.1679 0.0100076 2.83528e-21)
(10.1714 0.00907197 9.34525e-21)
(10.1591 0.0225983 -2.56098e-21)
(10.17 0.0231667 2.82414e-21)
(10.1703 0.0206181 0)
(10.1676 0.0223332 -9.10235e-21)
(10.1674 0.0134752 -1.04493e-20)
(10.1678 0.0161219 0)
(10.1736 0.00194365 -2.25518e-20)
(10.1722 0.0057303 -1.12639e-20)
(10.1733 -0.00329947 4.96792e-20)
(10.1709 -0.00945889 -1.85364e-20)
(10.1811 -0.0231471 -1.13903e-20)
(10.1951 -0.0411516 4.78699e-20)
(10.1378 -0.00203536 -4.8063e-21)
(10.1416 -0.00475184 8.92094e-21)
(10.1632 -0.0128251 2.23147e-21)
(10.1506 -0.00864788 6.59256e-21)
(10.1495 -0.00850733 0)
(10.153 -0.010305 1.78212e-21)
(10.1584 -0.0107076 9.93885e-23)
(10.1539 -0.0103392 0)
(10.1536 -0.017819 -1.83281e-21)
(10.1495 -0.0180184 -1.5552e-21)
(10.2878 -0.0059241 1.35435e-21)
(10.0371 -0.055216 3.24006e-20)
(10.0008 0.0022664 -1.4704e-20)
(10.0003 -0.00386101 0)
(10.0021 -0.0120462 3.14051e-20)
(10.0143 -0.0363968 -6.99858e-21)
(10.0068 -0.0331694 0)
(10.0036 -0.0233772 1.04668e-20)
(10.2207 -0.0690895 -5.43932e-20)
(10.1206 -0.010523 5.53078e-23)
(10.1008 -0.0129398 0)
(10.1302 -0.0240825 -5.99887e-21)
(10.1345 -0.0432591 -1.15155e-21)
(10.0575 -0.0100831 0)
(10.0784 -0.00945786 0)
(10.1675 -0.070121 1.45812e-20)
(10.148 -0.0551943 -2.94297e-22)
(10.051 -0.0260757 1.03777e-19)
(10.0433 -0.0389001 4.96561e-20)
(10.0332 -0.0448649 1.26968e-20)
(10.0211 -0.0446429 0)
(8.45733 -0.00195961 3.56711e-20)
(9.41746 0.108958 0)
(10.2836 0.057995 1.03864e-21)
(10.3183 0.025193 -1.20727e-21)
(10.1959 0.0181085 6.33912e-21)
(10.1722 0.0124991 1.2063e-20)
(10.177 0.0102285 0)
(10.1604 0.0241032 3.90774e-21)
(10.1718 0.0254231 -8.26227e-22)
(10.1732 0.0234603 -3.56524e-21)
(10.1721 0.0251151 -1.69261e-21)
(10.1729 0.0168234 2.04144e-22)
(10.1839 0.0015307 -1.30368e-20)
(10.1807 0.00643234 1.46231e-20)
(10.1855 -0.00516236 1.35484e-20)
(10.1849 -0.0134598 -1.22858e-20)
(10.201 -0.0269558 -4.79297e-20)
(10.228 -0.04558 3.40881e-24)
(10.1416 -0.00257627 -2.67093e-21)
(10.151 -0.00717347 -2.94474e-20)
(10.1463 -0.00598773 1.84831e-20)
(10.1726 -0.0182965 -2.10522e-21)
(10.1648 -0.0129051 -6.38168e-22)
(10.1547 -0.0110907 -1.69072e-21)
(10.1565 -0.0118341 0)
(10.1597 -0.0112391 1.30345e-21)
(10.1569 -0.0120233 8.48923e-21)
(10.1589 -0.0128612 0)
(9.66487 -0.0878 -8.21185e-20)
(9.38428 -0.0905861 1.47277e-20)
(10.1402 -0.00816654 0)
(10.3265 0.00276952 5.35482e-21)
(10.0004 0.00279351 1.4392e-19)
(10.0022 0.00844509 -1.37247e-19)
(10.0046 0.00103769 0)
(10.0003 -0.00457063 -1.95995e-20)
(10.0014 -0.0137977 7.17962e-20)
(10.0115 -0.0425351 5.91684e-21)
(10.0038 -0.0352203 0)
(10.0013 -0.0245385 -1.65423e-19)
(10.2051 -0.0912942 5.43672e-20)
(10.2663 -0.0673999 2.28054e-20)
(10.1189 -0.0326518 -2.70892e-21)
(10.1015 -0.0267134 0)
(10.1186 -0.0514658 4.48738e-21)
(10.082 -0.0232791 0)
(10.065 -0.0273008 -8.67223e-20)
(10.147 -0.0803471 1.58634e-20)
(10.1315 -0.0602036 4.18896e-21)
(10.0554 -0.0402264 -2.00265e-20)
(10.0446 -0.0518573 -1.16819e-20)
(10.0301 -0.0533007 4.03049e-20)
(10.0165 -0.0520273 -3.82584e-20)
(8.16081 -0.023163 5.05738e-21)
(9.11404 0.076934 3.31966e-21)
(9.05078 -0.0677649 6.77914e-21)
(10.2357 0.0382722 -2.33325e-21)
(10.3408 0.0272977 2.15917e-21)
(10.2081 0.0225601 -2.42137e-21)
(10.1787 0.0164841 0)
(10.1848 0.0145565 -1.95175e-20)
(10.1621 0.0273348 -4.62043e-21)
(10.1736 0.0282466 7.71015e-21)
(10.1779 0.0266336 1.51707e-21)
(10.1772 0.0273328 1.1174e-20)
(10.1908 0.0105985 1.95111e-20)
(10.1962 0.00463814 0)
(10.2005 -0.00371202 0)
(10.2024 -0.0143305 0)
(10.2291 -0.0241483 0)
(10.2668 -0.0398307 -4.70901e-20)
(10.3057 -0.0633894 -7.36551e-20)
(10.1458 -0.00304316 2.6708e-21)
(10.1519 -0.0055227 8.23382e-21)
(10.1666 -0.0137501 2.30792e-21)
(10.1658 -0.0139367 1.75336e-22)
(10.1611 -0.0122725 -1.56576e-21)
(10.1627 -0.0135243 -1.82542e-21)
(10.165 -0.0149097 0)
(10.1587 -0.0117216 0)
(10.1617 -0.0138047 0)
(10.1705 -0.00446667 0)
(10.3662 -0.0137464 3.99239e-20)
(10.2982 -0.0295127 -3.02773e-20)
(10.0006 0.00484175 3.59109e-20)
(10.0023 0.0108637 -2.80909e-20)
(10.0049 0.0140306 -6.99211e-20)
(10.0137 0.00793737 0)
(10.0073 0.0109465 0)
(9.99993 -0.00490123 5.48456e-21)
(10.001 -0.0154274 4.30301e-20)
(10.0078 -0.0459649 -1.2754e-21)
(10.0002 -0.0396337 -2.96305e-20)
(9.99941 -0.0301419 2.68044e-19)
(10.1823 -0.107157 1.5045e-22)
(10.2517 -0.0954116 4.59829e-20)
(10.3318 -0.104481 -7.23306e-20)
(10.0714 -0.0447462 -6.48904e-20)
(10.1023 -0.0508247 2.04333e-20)
(10.0892 -0.0406188 2.9657e-20)
(10.125 -0.0862219 0)
(10.1147 -0.0631125 -1.94564e-21)
(10.0586 -0.0588244 -1.60952e-20)
(10.0414 -0.0623336 -4.43467e-20)
(10.0231 -0.0623628 2.24774e-20)
(10.0111 -0.0568745 -1.42089e-20)
(10.3284 -0.0677788 0)
(8.03798 -0.0144614 -4.75401e-21)
(8.96731 0.0594013 2.26195e-21)
(8.85636 -0.0372701 -5.15766e-21)
(10.2084 0.0304511 7.21533e-22)
(10.3522 0.0291127 -7.24845e-22)
(10.2156 0.0308061 0)
(10.1841 0.0284755 0)
(10.1922 0.027773 2.00622e-20)
(10.1773 0.0321397 0)
(10.1639 0.0352952 -8.01253e-23)
(10.1836 0.029912 -1.47285e-21)
(10.201 0.0245125 -2.00505e-20)
(10.2101 0.0182365 0)
(10.2187 0.00815324 0)
(10.2256 -0.00593386 0)
(10.2611 -0.0151229 0)
(10.2944 -0.0339344 3.68182e-20)
(10.3373 -0.0485903 2.15113e-19)
(10.3657 -0.0675889 1.72876e-20)
(10.1492 -0.00212702 0)
(10.1556 -0.00581649 -8.33513e-21)
(10.1675 -0.0131769 0)
(10.1667 -0.0146837 5.88619e-21)
(10.1676 -0.017009 -1.54064e-20)
(10.168 -0.0192278 4.70831e-21)
(10.1679 -0.016669 -1.60942e-20)
(10.1626 -0.0123254 2.59307e-21)
(10.1643 -0.0135585 0)
(10.167 -0.0177248 2.37626e-20)
(10.1791 -0.0113256 0)
(10.2687 0.0176671 1.65616e-20)
(10.0006 0.006023 -6.63678e-20)
(10.024 0.00792261 2.02487e-20)
(10.0034 0.0164442 0)
(10.0063 0.0204348 -1.19885e-21)
(10.0114 0.0147338 5.695e-20)
(9.99982 -0.00455093 0)
(9.99906 -0.0147628 -4.78937e-20)
(10.0024 -0.05019 3.29369e-20)
(9.99526 -0.0388645 0)
(9.99592 -0.0297393 0)
(9.99822 -0.0211601 -1.81799e-21)
(10.1556 -0.117076 -1.85794e-21)
(10.3757 -0.143243 1.01198e-19)
(10.2208 -0.121511 -2.32108e-21)
(10.2941 -0.132133 -7.4318e-20)
(10.105 -0.0876879 5.364e-20)
(10.0759 -0.0604691 0)
(10.0949 -0.0660255 -2.41746e-20)
(10.0558 -0.07147 0)
(10.0311 -0.0740443 4.97519e-21)
(10.0152 -0.0694453 4.29463e-20)
(10.0038 -0.0620506 -1.7148e-20)
(10.2778 -0.0441473 0)
(7.97167 -0.0142806 2.8215e-21)
(8.87353 0.0583639 -3.67613e-21)
(8.77234 -0.0338051 -7.5974e-22)
(10.1707 0.024812 9.3543e-22)
(10.3547 0.032167 1.2593e-21)
(10.2176 0.0455144 6.09962e-22)
(10.2025 0.0342571 2.18851e-20)
(10.1921 0.0326833 -1.06436e-20)
(10.184 0.0375216 1.28412e-21)
(10.1676 0.0486881 -1.38112e-21)
(10.2142 0.0323626 -2.88753e-20)
(10.2268 0.0271642 1.71403e-20)
(10.2517 0.0045968 0)
(10.2397 0.0185366 0)
(10.2846 -0.00718956 -1.3159e-20)
(10.3523 -0.0067953 7.82413e-20)
(10.3227 -0.0105117 0)
(10.3868 -0.0273237 -2.1793e-19)
(10.4095 -0.09815 -1.39794e-19)
(10.1534 -0.0019939 4.57306e-21)
(10.1592 -0.00540052 -2.47549e-21)
(10.1663 -0.0119425 1.78715e-20)
(10.1676 -0.0190217 4.09184e-21)
(10.1708 -0.0178548 1.33776e-20)
(10.1709 -0.022387 -1.9434e-21)
(10.1721 -0.0177067 3.79254e-22)
(10.1683 -0.0143633 -2.19816e-21)
(10.1693 -0.0195398 8.63611e-21)
(10.1625 -0.0250315 0)
(10.243 -0.0113499 -2.60905e-22)
(10.0002 0.00575628 -4.063e-20)
(10.0016 0.0153371 8.29593e-20)
(10.0388 0.00743851 -2.93729e-20)
(10.0282 0.0195775 -5.34879e-20)
(10.0054 0.0232428 3.27412e-20)
(10.0107 0.0237565 -2.45655e-20)
(10.0205 0.0216445 5.22441e-20)
(9.99812 -0.0115514 0)
(9.99964 -0.00370486 0)
(9.99563 -0.0495924 -1.67618e-20)
(9.99021 -0.0373711 -5.5718e-20)
(9.99263 -0.0285503 1.70704e-20)
(9.99557 -0.0198532 1.85981e-21)
(10.1294 -0.120833 -1.74438e-20)
(10.4297 -0.194477 -1.74382e-19)
(10.1871 -0.141247 -4.67402e-21)
(10.3358 -0.183371 2.66115e-20)
(10.2546 -0.170418 3.02871e-20)
(10.0896 -0.0917618 -4.33887e-20)
(10.0717 -0.0773372 -1.29995e-20)
(10.106 -0.120127 2.37831e-20)
(10.0438 -0.0869516 -7.22242e-20)
(10.0215 -0.0847371 0)
(10.0055 -0.0762356 -1.33755e-20)
(9.99428 -0.0625261 -3.59415e-21)
(10.3034 -0.0456787 5.32643e-22)
(7.93226 -0.0224385 0)
(8.78238 0.0616108 1.11711e-21)
(8.69497 -0.0299469 0)
(10.1348 0.0194315 -1.31058e-21)
(10.3542 0.0365285 -5.83334e-22)
(10.2088 0.0612102 7.77959e-23)
(10.2077 0.0498809 0)
(10.1942 0.0438929 9.02997e-22)
(10.1761 0.0610224 1.59383e-20)
(10.2256 0.0439426 0)
(10.24 0.0380015 3.38952e-20)
(10.2713 0.0132981 -4.40415e-21)
(10.256 0.0289604 -3.90001e-20)
(10.3098 0.00226847 -2.54806e-21)
(10.3587 0.0308479 9.68488e-20)
(10.3963 0.00745086 -4.45698e-20)
(10.4345 -0.0478737 1.62713e-19)
(10.4674 -0.138377 4.00257e-20)
(10.157 -0.00187709 0)
(10.1639 -0.00512222 0)
(10.1708 -0.0110317 -2.42672e-20)
(10.1724 -0.0147325 6.47635e-22)
(10.1684 -0.0231183 -9.43839e-21)
(10.1721 -0.020553 0)
(10.1739 -0.0264479 -2.41096e-21)
(10.1746 -0.0191669 -3.81872e-21)
(10.1736 -0.0204013 3.51378e-21)
(10.169 -0.0270809 4.33153e-21)
(10.2607 -0.0136536 1.12147e-22)
(10.0001 0.00433646 3.33714e-20)
(10.0004 0.0131132 8.38204e-20)
(10.0018 0.0206527 -1.22574e-19)
(10.0037 0.0245467 -4.44614e-20)
(10.057 0.00733757 0)
(10.0413 0.0194834 3.42475e-20)
(10.0335 0.0301902 -4.13137e-20)
(10.0089 0.0291003 -1.43388e-20)
(10.0168 0.0302439 0)
(10.0272 0.031103 -8.78657e-20)
(10.0774 0.0069533 -4.27089e-21)
(9.99704 -0.0080512 5.01438e-20)
(9.99954 -0.00229302 0)
(9.99985 0.00369581 0)
(9.98795 -0.0473305 -2.0733e-20)
(9.98541 -0.0315915 4.39293e-20)
(9.99237 -0.0154349 -5.40405e-20)
(9.98821 -0.0235118 0)
(10.1493 -0.155274 9.96908e-24)
(10.3835 -0.243616 1.50397e-20)
(10.2114 -0.194174 5.9132e-21)
(10.2897 -0.220057 3.13183e-22)
(10.0817 -0.115741 3.29372e-20)
(10.0606 -0.0989188 5.96831e-20)
(10.1123 -0.160275 0)
(9.98327 -0.0602489 4.40272e-20)
(10.0332 -0.103697 -7.75493e-22)
(10.0094 -0.0952444 0)
(9.99236 -0.0781905 -1.65511e-20)
(10.2868 -0.0421494 -8.79162e-23)
(7.90012 -0.02663 4.52573e-22)
(8.69868 0.0681061 -6.95017e-22)
(8.64875 -0.0268926 -1.2506e-21)
(10.2082 0.0708723 0)
(10.1219 0.00705201 1.14878e-22)
(10.3479 0.0396367 -8.01715e-23)
(10.2063 0.0673046 -2.34874e-20)
(10.1901 0.0704534 3.65555e-21)
(10.2487 0.0628055 -7.70468e-21)
(10.2332 0.061258 2.86393e-20)
(10.2906 0.0373352 -5.52397e-20)
(10.3239 0.0460288 -1.01181e-19)
(10.2712 0.0407504 7.21387e-20)
(10.3827 0.0483886 0)
(10.4462 0.00866684 9.75461e-20)
(10.4959 -0.0759406 0)
(10.1591 -0.0016069 4.30654e-21)
(10.1713 -0.0041236 4.45263e-20)
(10.1755 -0.00928065 0)
(10.1774 -0.0144106 -3.76445e-22)
(10.1783 -0.0210626 -1.0494e-20)
(10.1698 -0.0294004 0)
(10.1746 -0.0226181 0)
(10.1776 -0.0295828 -3.53337e-22)
(10.1794 -0.0213493 1.01756e-20)
(10.1701 -0.0342243 1.10944e-21)
(10.2637 -0.019195 -1.05342e-21)
(10.1563 0.000498767 -5.23999e-21)
(10.1517 0.00160797 0)
(9.99937 0.0130701 1.34876e-20)
(9.99925 0.0213914 0)
(10.0029 0.0287728 4.66954e-20)
(10.0068 0.0324852 1.43795e-20)
(10.0576 0.0203749 0)
(10.0441 0.0315151 5.74881e-20)
(10.0345 0.0369051 3.79242e-21)
(10.0144 0.036731 0)
(10.0243 0.0380351 0)
(10.0758 0.0219171 -4.76952e-22)
(10.0983 0.00594265 -4.13176e-21)
(10.1178 0.0034891 0)
(10.1334 0.000149331 4.61084e-20)
(10.1468 0.00504475 -4.57039e-20)
(9.99927 0.00063403 0)
(9.99571 -0.00264278 0)
(9.99966 0.00198771 0)
(9.99823 0.0115157 0)
(9.97161 -0.0514714 -2.15663e-20)
(9.98003 -0.0395412 5.48336e-20)
(9.98185 -0.0249669 0)
(9.98895 -0.00928174 5.35098e-20)
(10.1641 -0.213855 1.99019e-20)
(10.3306 -0.287066 2.3361e-20)
(10.2387 -0.251824 -2.15005e-20)
(10.0514 -0.123405 2.82082e-21)
(10.0774 -0.139367 -6.26982e-22)
(10.097 -0.191793 1.03992e-20)
(10.1189 -0.229883 -3.58988e-20)
(9.96075 -0.0655849 0)
(9.97674 -0.0760399 -2.64416e-21)
(10.0186 -0.118604 0)
(9.99124 -0.099847 0)
(10.3061 -0.0435539 0)
(8.6076 0.0738095 -1.72904e-22)
(7.85602 -0.0309034 -2.51488e-22)
(8.71528 -0.0394413 -1.01533e-20)
(10.3332 0.0514049 0)
(10.1662 -0.00310519 -4.32533e-21)
(10.2188 0.0957172 -4.00333e-21)
(10.2414 0.0727196 -1.4214e-20)
(10.3203 0.0856138 0)
(10.2789 0.0801865 0)
(10.3615 0.0805533 -3.92516e-20)
(10.4432 0.0642805 4.59385e-21)
(10.5128 -0.00722344 2.49183e-20)
(10.1693 0.000861296 -5.32094e-20)
(10.1803 -0.00709232 0)
(10.1829 -0.0128545 1.44171e-20)
(10.1842 -0.0208686 3.77468e-22)
(10.1847 -0.0231051 1.82347e-21)
(10.1725 -0.0367597 -1.15721e-21)
(10.1786 -0.0255503 1.52982e-21)
(10.1826 -0.0324795 0)
(10.2663 -0.0251386 2.97665e-22)
(10.1719 -0.0416365 -7.30613e-22)
(10.1568 0.0133389 2.21612e-20)
(10.1669 0.00522264 8.69615e-21)
(10.1612 0.00984226 -2.82984e-21)
(9.99798 0.0212346 1.64323e-20)
(9.99972 0.0292947 -3.19678e-20)
(10.005 0.0372206 -1.61445e-20)
(10.0118 0.0417041 1.37004e-20)
(10.0586 0.0335608 0)
(10.0451 0.0409668 2.21942e-20)
(10.0334 0.0450304 -3.58765e-21)
(10.0219 0.0456703 1.12344e-21)
(10.0746 0.0364194 -1.73659e-20)
(10.0962 0.0270877 1.4862e-20)
(10.0917 0.0378175 -7.68198e-21)
(10.1582 0.0227878 1.34634e-20)
(10.1155 0.0254729 -1.24562e-23)
(10.1475 0.0238572 -1.16079e-21)
(10.1332 0.0238471 3.9947e-21)
(9.99665 0.00850047 0)
(9.99262 0.0036054 0)
(9.99564 0.0196078 6.11138e-20)
(9.9854 0.00243205 -1.07263e-19)
(9.96078 -0.0417334 -5.67956e-20)
(9.97243 -0.0311515 2.55015e-20)
(9.98089 -0.012544 1.70529e-20)
(9.94678 -0.0509445 0)
(10.1844 -0.276126 0)
(10.2717 -0.324368 1.52414e-20)
(10.0367 -0.155619 -2.34232e-20)
(10.0557 -0.210052 3.13959e-20)
(10.0613 -0.168736 3.06123e-20)
(10.0654 -0.248031 -1.58748e-20)
(10.1286 -0.293443 5.8972e-21)
(9.96897 -0.0962952 -4.44382e-20)
(9.94791 -0.0813704 5.28924e-20)
(9.99178 -0.129631 -3.85468e-20)
(10.3891 -0.0544101 2.71789e-21)
(8.51393 0.103536 8.97289e-21)
(7.78542 -0.0326863 -4.76262e-20)
(8.72367 -0.0980809 -5.93341e-21)
(10.3603 0.0609221 1.7084e-20)
(10.2567 0.0167755 -1.85919e-20)
(10.2521 0.10852 4.24352e-20)
(10.263 0.0818808 -2.32584e-20)
(10.3417 0.117997 1.85412e-19)
(10.4263 0.118228 3.135e-19)
(10.5174 0.0633953 -2.36905e-19)
(10.1814 -0.00177185 0)
(10.1886 -0.00960023 -3.02317e-20)
(10.1911 -0.0191309 -1.088e-22)
(10.1918 -0.0239487 -1.1838e-20)
(10.1893 -0.0342363 1.18722e-21)
(10.1781 -0.0446896 3.86897e-22)
(10.1844 -0.0294433 5.85539e-22)
(10.233 -0.0325761 -2.88077e-22)
(10.1693 -0.0499341 0)
(10.1672 0.0145943 0)
(10.1816 0.00470594 0)
(9.99304 0.0283377 1.02018e-19)
(9.99683 0.0297966 -1.68304e-20)
(10.001 0.03858 4.99126e-20)
(10.0089 0.0477087 0)
(10.0193 0.0526479 -4.36306e-20)
(10.059 0.0454613 -6.50132e-21)
(10.0451 0.0510394 -1.4609e-21)
(10.0316 0.0546955 1.48771e-20)
(10.0744 0.0484756 1.10691e-20)
(10.0909 0.0553945 1.73552e-20)
(10.1066 0.0473753 -6.16791e-21)
(10.1684 0.0239624 5.92728e-21)
(10.1638 0.030787 1.43426e-20)
(10.1218 0.0443143 1.12195e-21)
(10.1538 0.0350593 -2.51421e-21)
(10.1396 0.0399771 -1.28508e-20)
(9.99257 0.0164913 5.81646e-20)
(9.98734 0.0117298 7.49554e-20)
(9.98909 0.0248799 -2.21288e-19)
(9.97702 0.000850152 -1.78261e-20)
(9.93091 -0.0667608 1.64534e-20)
(9.95032 -0.0236141 -2.77456e-19)
(9.96443 -0.0122925 8.90237e-20)
(9.93411 -0.0260328 0)
(9.98671 0.0317095 4.4939e-20)
(10.2074 -0.352904 -3.60034e-21)
(9.99988 -0.170988 0)
(10.0114 -0.202533 6.72843e-20)
(10.0204 -0.249332 -3.90372e-20)
(10.0699 -0.303599 0)
(10.1383 -0.371317 -3.58874e-21)
(9.94631 -0.162143 -9.43314e-20)
(9.95317 -0.129242 3.22642e-20)
(9.92724 -0.119698 -1.34236e-19)
(10.4166 -0.0956402 7.47935e-21)
(8.3234 0.223343 3.27816e-21)
(7.78357 -0.042165 2.98751e-19)
(8.31877 -0.228049 -1.70307e-19)
(10.3276 0.149733 -2.00455e-21)
(10.2874 0.143043 -1.61589e-19)
(10.3539 0.148097 8.21804e-20)
(10.3952 0.167447 -1.85522e-19)
(10.5061 0.136333 -7.82382e-21)
(10.1937 -0.00420869 1.59132e-20)
(10.1984 -0.0150404 -3.40619e-23)
(10.2006 -0.0227643 1.69168e-20)
(10.1986 -0.0345445 -1.12459e-21)
(10.1849 -0.0540598 -7.51969e-22)
(10.1927 -0.0333406 1.85673e-21)
(10.2111 -0.0519984 1.62903e-22)
(10.1762 -0.0604912 2.00616e-20)
(10.1818 0.0133018 0)
(10.1974 0.00372387 -1.81544e-20)
(9.99125 0.0370871 -3.7213e-20)
(9.9965 0.0391328 -3.33473e-20)
(10.0037 0.051254 0)
(10.0162 0.0614299 -2.78332e-20)
(10.0295 0.0631399 1.58964e-20)
(10.0593 0.0565701 6.24987e-21)
(10.0439 0.0635589 0)
(10.0759 0.0615572 -3.12416e-21)
(10.0945 0.0631625 -1.74916e-21)
(10.1133 0.0627341 4.50074e-21)
(10.1812 0.024367 -1.03464e-20)
(10.1752 0.0349628 0)
(10.1314 0.058921 -5.11624e-22)
(10.1642 0.0447206 -1.0567e-21)
(10.1492 0.0525884 -7.13231e-21)
(9.97908 0.0114779 -3.24853e-20)
(9.98208 0.023883 0)