/*--------------------------------*- C++ -*----------------------------------*\
  =========                 |
  \\      /  F ield         | OpenFOAM: The Open Source CFD Toolbox
   \\    /   O peration     | Website:  https://openfoam.org
    \\  /    A nd           | Version:  8
     \\/     M anipulation  |
\*---------------------------------------------------------------------------*/
FoamFile
{
    version     2.0;
    format      ascii;
    class       volScalarField;
    location    "0.028";
    object      p;
}
// * * * * * * * * * * * * * * * * * * * * * * * * * * * * * * * * * * * * * //

dimensions      [0 2 -2 0 0 0 0];

internalField   nonuniform List<scalar> 
656
(
2.23035e-06
-0.235387
1.72763
-0.786065
0.189079
1.7303
-1.15047
-1.55228
2.05306
1.70787
1.76751
-0.43783
0.386062
1.74682
2.0327
2.25741
1.63802
1.58875
2.26649
2.3906
1.80412
1.82319
1.78842
1.81938
-0.0670245
0.616107
1.77354
2.01559
2.24888
1.84583
1.86864
2.55789
2.39535
2.38584
2.55582
2.69373
2.15895
2.17503
2.13965
1.78426
1.85479
0.281312
0.818489
1.80871
2.00543
2.24209
2.18925
2.2018
2.86631
2.69449
2.55998
2.38187
2.55365
2.69256
2.86672
3.03465
2.16451
2.17889
2.19046
2.12283
2.14889
1.82861
1.99952
2.23512
2.20074
2.20956
3.03368
2.86449
2.69492
3.3522
2.37765
2.55099
2.6903
2.86553
3.03426
2.18639
2.19648
2.19836
2.19792
1.98868
2.22508
2.19723
2.19671
3.61711
3.34807
3.03011
2.86219
3.35252
3.56695
4.82161
2.36981
2.54887
2.68643
2.86569
3.03534
2.09743
2.09288
2.09415
2.09627
2.09811
2.09944
5.39655
5.08253
3.65837
3.33602
3.02496
3.35846
3.53188
4.59065
5.00615
2.12317
2.10703
2.0987
2.09233
2.08617
2.08071
3.46581
5.83521
5.3087
3.68984
3.31952
3.40053
2.14479
2.13256
2.12147
2.11223
2.10407
2.0969
3.53996
3.55097
6.25431
5.52253
3.70734
3.53469
2.23397
2.21951
2.2071
2.19685
2.18783
2.18
3.19222
3.54271
3.65279
6.69917
5.77803
3.196
2.3346
2.32241
2.31059
2.30048
2.29174
2.28439
3.12639
3.19048
3.54012
3.76457
7.19501
3.13688
3.07837
2.41681
2.41759
2.41167
2.40071
2.38944
2.37992
3.07017
3.11663
3.18849
3.53013
3.85263
3.07303
2.48113
2.51028
2.50408
2.48784
3.06837
3.0617
3.10754
3.18433
3.51574
3.07279
3.18258
2.3342
2.32315
3.08528
3.07028
3.06268
3.05451
3.09777
3.17825
3.15378
3.18678
3.20808
3.09266
3.08446
3.06712
3.058
3.04772
3.08841
3.13445
3.1554
3.1911
3.2092
3.32749
3.09763
3.0924
3.08335
3.06485
3.05387
3.04159
3.12224
3.13453
3.15601
3.19406
3.22089
3.37283
3.09995
3.0979
3.09244
3.08285
3.06305
3.05028
3.11493
3.12175
3.13417
3.15588
3.19582
3.23127
3.09857
3.10014
3.09825
3.09273
3.08261
3.06153
3.11084
3.11429
3.1211
3.1335
3.1555
3.19665
3.10069
3.09832
3.10029
3.09864
3.09306
3.08244
3.11296
3.11051
3.11361
3.12041
3.13277
3.15513
3.10305
3.10046
3.09821
3.10039
3.09902
3.09336
3.10668
3.10943
3.11324
3.11023
3.11301
3.11972
3.13217
3.10292
3.10021
3.09816
3.10046
3.09939
3.10675
3.10974
3.11338
3.11007
3.11247
3.11917
3.1028
3.09999
3.09814
3.10053
3.10683
3.11003
3.11344
3.10997
3.11196
3.10269
3.09979
3.09812
3.10689
3.1103
3.11348
3.10989
3.10259
3.0996
3.10695
3.11054
3.11351
3.10249
3.107
3.11076
0.612542
0.920923
2.12342
2.05246
1.83202
1.80292
1.8338
1.37011
1.47488
1.26346
1.80831
1.85176
2.14803
2.14655
2.16917
2.16492
2.10918
2.08335
2.01548
1.96066
1.74584
1.56676
1.91267
1.84284
1.99249
1.99247
1.88367
2.11033
2.11231
2.14482
2.15951
2.16712
2.12966
2.08488
2.09489
2.00224
1.94429
2.1329
2.22526
2.1136
2.36289
2.27328
2.13899
2.07844
4.47372
4.70661
3.33338
2.5525
2.45735
3.18146
3.02901
2.6868
2.64969
2.97196
2.87118
2.8148
2.14683
2.11927
2.13415
2.17752
2.22992
2.22291
2.21283
2.21119
2.2655
2.16555
2.45254
2.39519
2.28589
2.30178
3.97342
3.53872
3.45394
3.98768
3.80075
3.42859
3.27886
3.31988
3.17581
2.62586
2.5316
3.08873
2.98202
2.89419
2.82076
2.74796
2.15208
2.17091
2.19723
2.25622
2.28164
2.35006
2.37349
2.56939
2.42144
2.36815
2.65712
2.4881
2.42816
3.67298
3.54224
3.49205
3.52941
3.45124
3.37401
3.23383
3.17785
3.05767
2.96663
2.88476
2.74526
2.70577
2.24339
2.25954
2.28291
2.37386
2.39152
2.44277
2.47931
2.59374
2.54539
2.81265
2.73764
2.60088
2.54631
3.18739
3.32127
3.33267
3.36327
3.28357
3.20925
3.11887
3.03734
2.89554
2.98337
2.91658
2.34501
2.55747
2.38676
2.39868
2.44717
2.4591
2.52405
2.85576
2.69622
2.739
2.8856
2.60207
2.71069
2.68518
2.88462
3.1315
3.15602
3.00085
2.96681
3.08295
3.02994
3.19554
3.24285
3.21994
3.01043
2.98546
3.17681
3.03066
3.04452
2.43553
2.62566
2.54284
2.60058
2.48463
2.487
2.51932
2.75041
2.81834
2.87099
2.92177
2.68377
2.75717
2.71353
2.91924
2.97921
3.03497
3.03113
3.09403
3.13996
3.12065
3.06655
3.06443
3.07573
3.06464
3.0853
3.13112
3.05113
3.07469
3.03803
3.07883
3.07732
3.09402
3.07514
3.06937
3.07456
2.56781
2.46394
2.53375
2.64477
2.66345
2.54068
2.55254
2.63778
2.94478
2.80121
2.84126
2.683
2.80195
2.98234
2.96402
3.03905
3.06755
3.09349
3.13557
3.13999
3.19601
3.21923
3.21968
3.19117
3.16378
3.18354
3.13879
3.19642
3.17661
3.18
3.14029
3.11556
3.10551
3.05659
3.09973
3.1029
3.12784
3.096
3.07294
3.06223
3.06866
3.06598
3.06939
3.09459
3.23056
2.46254
2.35125
2.43137
2.57435
2.60229
2.67707
2.84347
2.83172
2.86946
3.10652
2.9993
3.00751
3.26119
3.15773
3.13634
3.29432
3.26931
3.35486
3.16076
3.13082
3.16098
3.14983
3.15314
3.08208
3.08346
3.1293
3.10612
3.11197
3.08824
3.06411
3.093
3.09833
3.08799
3.09136
3.10209
3.36571
3.17919
3.06462
3.02262
3.02579
2.98022
2.78594
3.02499
3.31135
3.09116
3.09105
3.1424
3.12941
3.13647
3.12677
3.13509
3.09335
3.09176
3.12463
3.11341
3.10154
3.09212
3.10279
3.08926
3.52476
3.09738
3.0973
3.09709
3.09811
3.09901
3.09978
3.1252
3.11321
3.12396
3.12166
3.12309
3.0978
3.1047
3.1
3.11209
3.11432
3.09909
3.1017
3.09976
3.10017
3.09916
3.09996
3.11644
3.11365
3.11515
3.11558
3.11502
3.10157
3.10446
3.1077
3.10863
3.11203
3.11102
3.10134
3.10243
3.10079
3.10141
3.11144
3.11143
3.10964
3.10472
3.10875
3.10646
3.11229
3.11104
3.10316
3.10458
3.10658
3.10908
3.10857
)
;

boundaryField
{
    movingWall
    {
        type            zeroGradient;
    }
    fixedWalls
    {
        type            zeroGradient;
    }
    frontAndBack
    {
        type            empty;
    }
    defaultFaces
    {
        type            empty;
    }
}


// ************************************************************************* //
