/*--------------------------------*- C++ -*----------------------------------*\
  =========                 |
  \\      /  F ield         | OpenFOAM: The Open Source CFD Toolbox
   \\    /   O peration     | Website:  https://openfoam.org
    \\  /    A nd           | Version:  8
     \\/     M anipulation  |
\*---------------------------------------------------------------------------*/
FoamFile
{
    version     2.0;
    format      ascii;
    class       surfaceScalarField;
    location    "0.028";
    object      phi;
}
// * * * * * * * * * * * * * * * * * * * * * * * * * * * * * * * * * * * * * //

dimensions      [0 3 -1 0 0 0 0];

internalField   nonuniform List<scalar> 
1107
(
0.000315982
-0.000643355
0.000633476
-0.000306104
0.000616965
-0.000300983
-2.9666e-05
0.000646631
0.000304974
0.000538572
-0.00010664
-0.000736906
-0.000968616
0.000630235
-9.75457e-05
0.000701356
0.000286067
-5.35993e-05
-1.49164e-05
-3.72296e-05
0.000683861
-3.31295e-05
1.43759e-05
-8.78863e-05
0.000180707
-0.000148702
-6.51345e-05
0.000300273
-0.000856472
-0.00126744
0.000599099
-0.000207154
0.000739844
0.000760693
-9.65669e-05
4.16454e-05
0.000814405
-9.53576e-05
3.58686e-06
-4.28101e-05
-1.13295e-05
0.000725506
0.000852308
2.98521e-05
-6.77552e-05
6.45026e-05
-0.000126811
-8.63934e-05
2.51603e-05
-4.8544e-05
0.000227142
-0.000140458
-0.000213495
0.000277733
-0.000115725
0.000296507
-0.000875246
-0.0015101
0.000539168
-0.000365811
0.000757756
0.000828152
-0.000184875
0.000898122
-0.000165328
5.21816e-06
-2.28679e-05
-6.11137e-06
-2.20607e-05
0.000864108
1.02612e-05
0.000755358
0.000944532
-0.000114164
0.000961447
-3.89766e-05
0.000949766
-2.39328e-05
3.56148e-05
3.53493e-05
-7.26403e-05
-4.91024e-05
1.36012e-05
-2.67959e-05
-8.2195e-05
-0.000130904
0.0003217
-0.000214639
-0.000320557
0.000396907
-0.000190932
0.000306513
-0.000784852
0.000459255
-0.00166284
-0.000569034
0.000742391
0.00087971
-0.000306829
0.000966416
-0.000252034
2.99346e-06
-1.22602e-05
-3.1179e-06
8.77341e-05
0.000915068
-5.30361e-05
0.0008525
-1.23255e-05
0.00076562
0.00102314
-0.000170886
0.00104682
-6.26567e-05
0.00103586
4.65737e-05
0.000996087
0.000127506
-0.000117675
0.000930364
0.000183397
5.72977e-05
-0.000103907
-3.55861e-05
2.75341e-05
-1.93388e-05
1.03886e-05
-9.6504e-06
-0.000129378
-0.000216165
-6.17534e-05
-0.000171531
0.000689582
-0.000799361
0.000900316
-0.000464754
0.00100751
-0.000359228
2.20314e-06
-4.07475e-06
-9.14767e-07
0.000864333
-6.69396e-05
0.000823097
-2.36331e-05
0.000753294
0.000821346
-0.000146537
0.000255556
0.00107468
-0.000238054
0.00110467
-9.26527e-05
0.00109615
5.50977e-05
0.00105271
0.000170942
0.000970316
0.000265795
4.55212e-05
-3.0556e-05
-7.67185e-05
2.4379e-05
-1.44439e-05
1.14423e-05
-6.40205e-06
4.27137e-06
-2.47951e-06
0.000874037
-0.000649209
0.000999961
-0.000485152
8.81329e-07
-6.84705e-07
-3.34352e-08
0.000332804
0.000669225
-0.000180683
0.000789826
-7.20304e-05
0.000785022
-2.88644e-05
0.000729661
0.000824569
0.000401303
0.000621198
0.000536175
0.000387611
-0.00129415
0.00152774
0.00107688
-0.000314969
0.00111508
-0.000130858
0.00111353
5.66447e-05
0.00106907
0.000215406
0.000968527
0.000366339
-3.57254e-05
-5.55748e-05
6.07442e-05
-1.92088e-05
-3.09604e-05
-9.0721e-06
-1.65388e-05
-3.37514e-06
-8.17647e-06
-6.70186e-07
-3.38967e-06
-7.0362e-07
0.0009896
0.000343995
-0.000945985
0.000371203
-0.000996131
0.000687661
-7.85192e-05
0.000738764
-2.57724e-05
0.000700797
0.000789043
0.000580787
0.000544935
0.000780283
0.000410449
0.00166223
0.000480857
0.000919192
-5.73177e-05
-9.47279e-05
9.64708e-05
-3.10502e-05
-5.7228e-05
-1.46638e-05
-3.29251e-05
-5.43134e-06
-1.74089e-05
-1.08811e-06
-7.7329e-06
-1.79173e-06
0.000103925
0.000298136
-5.80652e-05
0.000227002
-0.000801784
0.000357688
-0.000666158
0.000680718
-2.04732e-05
0.000675024
0.000411782
0.000173
-4.37618e-05
-0.000123984
7.30178e-05
-2.4077e-05
-7.69128e-05
-1.15949e-05
-4.54072e-05
-4.41465e-06
-2.45892e-05
-9.5845e-07
-1.11891e-05
-2.75019e-06
0.000248167
0.00019969
-0.000149721
0.000199859
-3.09221e-05
0.000135853
-0.000579949
0.000342962
-0.000328401
0.000654551
0.000292527
0.000367422
-1.40254e-05
-0.000132325
2.23664e-05
-7.97227e-06
-8.29659e-05
-3.95591e-06
-4.94235e-05
-1.59229e-06
-2.69529e-05
-3.90838e-07
-1.23906e-05
-3.14102e-06
0.000149938
0.000133288
-8.35361e-05
0.000127138
-7.7e-05
0.0001202
-1.52689e-05
6.98484e-05
-0.000306836
0.00032615
0.000196912
0.000245554
1.43508e-05
-0.000120457
-2.62184e-05
7.31159e-06
-7.59267e-05
3.26727e-06
-4.53792e-05
1.15589e-06
-2.48415e-05
1.88185e-07
-1.14229e-05
-2.95284e-06
0.000127917
7.66476e-05
-7.12765e-05
8.4057e-05
-4.04548e-05
7.31305e-05
-2.99309e-05
5.89995e-05
-4.41998e-06
1.93142e-05
0.000116429
0.000208399
-8.6438e-05
5.84065e-05
0.000144461
1.64445e-05
-3.59693e-05
-0.000100932
7.71621e-06
-6.71984e-05
3.30941e-06
-4.09724e-05
1.19428e-06
-2.27264e-05
2.30462e-07
-1.0459e-05
-2.72237e-06
3.75446e-05
-4.7335e-05
4.72755e-05
-3.4495e-05
4.79929e-05
-1.53172e-05
3.49413e-05
-5.87273e-06
1.48942e-05
-5.00654e-05
2.39893e-05
8.44826e-05
-3.10014e-05
5.60606e-05
-6.60317e-05
-1.22184e-05
-4.15094e-05
-2.74156e-06
-1.99359e-05
-5.46395e-06
1.45917e-05
-2.71124e-05
2.25845e-05
-2.26441e-05
2.65022e-05
-1.30044e-05
2.2711e-05
-3.08681e-06
9.02149e-06
5.79991e-06
-2.46695e-05
4.28589e-05
-2.33578e-06
6.57604e-06
7.15029e-06
-1.13906e-05
-1.26123e-05
5.44188e-05
-6.17424e-05
-1.80763e-05
-8.766e-07
-8.10482e-06
1.47813e-05
2.96319e-06
-1.3041e-05
8.30662e-06
-1.28345e-05
1.23684e-05
-8.5103e-06
1.23849e-05
-2.67824e-06
5.93468e-06
9.81032e-07
3.96746e-06
-7.28428e-06
-7.06458e-07
3.2202e-06
4.06231e-06
-1.89594e-06
8.12883e-06
-1.61615e-05
9.92858e-06
-2.30017e-06
-8.11413e-07
2.23498e-06
-1.08205e-06
-4.05954e-06
1.31725e-06
-6.05162e-06
4.31475e-06
-4.78082e-06
5.66811e-06
-1.79354e-06
3.25644e-06
2.75511e-06
1.53783e-06
-3.3119e-06
1.26925e-06
1.99173e-06
-2.91778e-08
1.35344e-06
-7.69856e-07
2.92198e-06
5.97672e-06
-2.59554e-06
4.62954e-06
-2.29981e-05
2.09641e-05
-1.70821e-06
1.61164e-06
-2.20359e-06
-1.71855e-06
-1.74888e-07
-9.64448e-07
-1.77784e-06
4.86157e-07
-2.22303e-06
1.88584e-06
-9.98556e-07
1.4629e-06
3.13606e-06
-2.15387e-07
-1.65565e-07
2.16319e-06
6.43885e-07
1.07622e-06
8.86336e-07
1.53992e-07
4.29598e-07
-2.14841e-07
5.41272e-07
-5.63913e-07
5.19345e-06
-9.83922e-07
1.39012e-06
-2.11441e-06
-1.1311e-06
1.02419e-06
-1.16824e-06
2.8904e-08
-6.81416e-07
-6.10269e-07
1.22835e-07
-4.60026e-07
4.64342e-07
2.24792e-06
-1.85838e-06
2.74653e-06
2.2018e-06
-2.53939e-07
1.4913e-06
2.2881e-07
7.31357e-07
3.08974e-07
1.38608e-07
7.61527e-08
-2.26433e-08
-1.35159e-06
-7.57245e-07
1.12491e-06
-5.48854e-07
8.07854e-07
-6.90238e-07
5.4619e-07
-7.0118e-07
4.86683e-08
-3.73492e-07
-1.13941e-07
4.31722e-09
1.26588e-06
-1.69884e-06
2.68088e-06
1.45394e-06
-1.11048e-06
1.41138e-06
-1.74004e-07
9.01606e-07
5.8569e-08
3.89495e-07
5.80878e-08
5.351e-08
-1.96023e-06
-1.10573e-06
1.71437e-06
-8.51829e-07
-4.54284e-07
-2.85477e-07
4.03091e-07
-3.78463e-07
2.23474e-07
-3.44738e-07
1.99148e-08
-1.09622e-07
1.78399e-06
1.04434e-06
-1.56244e-06
7.17065e-07
-9.61955e-07
8.6554e-07
-5.64641e-07
8.10179e-07
-8.25724e-08
4.43401e-07
4.66661e-09
1.11597e-07
-2.33738e-06
-6.1483e-07
9.91976e-07
-1.3128e-06
-6.44764e-07
-5.02768e-07
-2.36994e-07
-1.32007e-07
1.56635e-07
-1.71582e-07
5.03191e-08
-8.97067e-08
-2.29114e-06
1.0311e-07
-1.49343e-07
1.00772e-06
-1.51487e-06
1.13317e-06
6.28233e-07
3.76168e-07
-4.72579e-07
4.66688e-07
-2.21148e-07
3.82991e-07
-2.21603e-08
1.16262e-07
-1.57771e-06
-3.49908e-07
-8.22449e-07
-3.25082e-07
-2.70956e-07
-9.80462e-08
-4.75901e-08
3.26437e-08
-3.93881e-08
-1.54042e-06
6.58381e-08
6.00472e-07
6.76133e-07
3.28269e-07
1.7602e-07
-1.8191e-07
2.09047e-07
-4.72037e-08
9.41022e-08
-9.9798e-07
-1.74377e-07
-4.67511e-07
-1.28526e-07
-1.22723e-07
-2.29152e-08
-6.74485e-09
-9.68643e-07
3.65014e-08
3.07962e-07
3.68467e-07
1.35824e-07
6.45694e-08
-3.74324e-08
4.68994e-08
-5.72477e-07
-6.941e-08
-2.2224e-07
-2.90087e-08
-2.96603e-08
-5.52654e-07
1.66785e-08
1.23775e-07
1.68545e-07
3.18511e-08
9.46568e-09
-2.75366e-07
-1.62825e-08
-5.86687e-08
-2.63661e-07
4.97369e-09
2.86594e-08
4.13168e-08
-7.495e-08
-6.99759e-08
0.000596468
-0.00138132
-0.00106638
0.000321579
-0.000537744
0.000858551
-0.000536972
0.000537994
0.00130295
-0.000764954
0.00111202
-0.000269304
0.00156744
-0.00183675
0.000501065
-0.000298296
-0.00139014
0.000625186
0.000138554
-0.000310086
-0.000399189
4.42945e-05
-0.000121013
-0.000265791
0.000328148
-0.000727338
0.00117131
-0.00084316
0.000634337
-0.000755804
0.00206701
-0.00144182
0.00023026
0.00130359
-0.00107333
0.00100529
0.000356083
0.0010105
-0.0017663
-0.000431321
-6.02688e-05
0.000228897
-0.000289166
-3.6894e-05
-0.000764232
-6.8951e-05
-0.000695281
0.00136059
-0.00142954
0.000517428
-0.00124887
0.00141301
-0.00184433
0.000339679
0.000878685
-0.000539006
-0.00123477
0.000749616
-0.00136232
0.00104735
-0.000612703
0.000967176
-0.00221605
-0.000877152
0.000856514
0.000805712
0.00177571
-0.000407115
0.000987901
-0.00146896
0.0013381
-0.000421606
-0.00114582
0.000738706
-0.000779482
-0.00130127
0.00135791
3.68312e-05
-0.00127297
0.000493486
-0.00105756
0.00030035
-0.000192695
0.000130403
-0.000323098
-0.000564878
0.000274211
-0.000839089
-0.00115533
0.000187763
-0.00134309
-0.00202829
0.00111445
-0.0019916
-0.000575444
-3.7259e-05
-0.00063475
0.000213144
-0.000672009
-4.95113e-05
-0.00197878
-0.00204111
-0.000888988
0.0016947
-0.000108705
0.000879196
0.000289357
0.00148635
0.00198406
0.00165935
-4.6269e-06
0.000883823
-0.000981662
0.000977035
-0.000242956
-0.000537002
0.000573833
-0.000323858
-0.000930364
0.000687408
-0.000436878
-0.000760407
0.000323529
-0.000460057
0.000113777
-0.00025008
7.84045e-05
-0.000328485
-0.000760685
2.97488e-05
-0.000790433
-0.00131334
-0.000356862
-0.00095648
-0.00233564
0.000917907
-0.00124176
0.000245897
-0.00179522
-0.00145426
0.000212496
0.000928767
-0.00272398
-0.00140687
0.000560037
0.00142402
0.00144386
-0.000994306
0.00136173
0.000665043
0.00208906
0.000128198
0.00131566
0.00110523
8.36533e-05
0.00102158
0.000771061
0.000275388
0.000495673
0.000598917
0.000712694
-0.000741568
-0.000306118
7.68567e-06
-0.000313804
-0.000782748
-0.000348377
-0.000434371
-0.00130486
-0.00042473
-0.000880127
-0.0018316
0.00202054
-0.00180804
-0.000703442
0.00173215
-0.00247371
-7.58978e-05
0.00127621
-0.00197965
-0.000555394
-0.000601694
0.000847247
0.000760034
-0.00117906
0.0019391
0.000910001
0.00222566
0.00143736
0.000788307
0.00245894
0.00295461
-0.000632966
0.00202474
-0.00139177
0.00310668
-0.00015207
-0.000340022
0.00055718
-0.00111257
-9.45325e-05
-0.00024549
-0.000528903
-0.000119775
-0.000409129
-0.000999901
-0.000442721
0.00178394
0.000240793
-0.00170805
-0.000271604
-0.000707262
0.000948055
-0.000956572
-0.000156003
0.000639513
-0.000911117
-0.000317059
-0.00114244
0.000435179
-0.000313684
0.000522083
0.000533564
2.34594e-05
-0.000582911
0.000559451
-0.00111898
-0.000118683
0.000336377
-0.000217694
-0.000701593
-0.000672385
0.00120595
0.00126671
0.00205502
-0.000337708
-0.000781273
-0.00172948
0.00120527
0.000849744
0.0010532
-0.000676275
-0.000281459
0.000387641
-0.000543643
-0.000661166
0.000218445
-0.000273525
-0.000124731
-0.000156728
-0.00053386
-0.000315415
-0.00122821
0.000317091
-0.000280153
-0.000589685
0.000309532
-0.000154506
-0.000492988
-5.06547e-05
0.000810047
-0.000492957
-0.000652988
0.000498482
-9.35364e-05
0.000355162
-1.87855e-05
0.000261626
-0.000211257
0.000192471
1.70579e-05
0.000139007
-0.000156065
-0.000194199
-0.000411893
-0.000248008
-0.000163885
-0.000108802
0.000253263
0.000413281
-0.00013991
0.000553191
0.00106604
0.000304993
-0.000553001
-0.0003966
-0.00117787
0.000468694
0.000597344
-0.000642163
-0.000535711
0.00131844
-2.27418e-05
0.000107224
0.000230521
0.00011207
-0.000268798
-1.11377e-05
-0.000455139
0.000181613
-0.000505793
-9.97099e-05
-0.000169088
-0.000415125
-0.000233512
0.000467058
3.14238e-05
-0.00077659
0.000283634
-0.00051772
1.1927e-05
-0.000234087
-0.000289712
0.000321135
-0.000334635
4.49238e-05
-7.30093e-05
-0.000229947
0.000156938
-3.74758e-05
-0.000127104
8.9628e-05
1.19035e-05
4.94886e-06
2.38478e-05
-2.87967e-05
1.20991e-05
-2.28032e-05
4.6651e-05
6.7456e-05
-9.02593e-05
7.93595e-05
-4.42563e-05
-4.60029e-05
-0.000200322
-2.255e-05
-6.24667e-06
-6.85529e-05
-1.76372e-05
-9.64256e-05
-0.000103896
-0.000260311
-9.78688e-05
-0.000162442
-0.000650869
-9.22956e-05
0.000322817
0.000460895
0.00105824
-0.00042215
-0.000228719
0.000957861
0.000100378
1.54249e-05
2.7434e-05
0.000122649
4.14985e-05
8.11508e-05
0.000364315
5.31223e-05
-0.00022221
1.29094e-05
-7.23362e-05
-0.000149874
-0.000305848
-0.000293921
-0.000228651
-6.52704e-05
-0.000462737
-0.000141602
0.000185032
-2.80944e-05
-0.000229956
8.83542e-05
5.15008e-05
2.78588e-05
0.000141129
0.000113034
3.95583e-05
7.09277e-06
6.7417e-05
1.70214e-05
-4.58853e-05
-2.26677e-05
-0.000149781
-2.09934e-05
3.35616e-06
-4.3661e-05
-3.92812e-06
1.2765e-05
2.01637e-06
4.0199e-05
-9.61103e-05
-5.36709e-05
-0.000258552
-0.000138604
-0.000119948
-0.000367323
0.000322992
4.13236e-05
0.00042337
5.6047e-05
5.02046e-06
3.51785e-05
8.61712e-05
0.000127495
9.35745e-05
-2.61575e-05
0.000206609
-0.000229693
7.98187e-05
-0.000294963
-1.80763e-05
-5.19345e-06
-6.73456e-06
8.75093e-06
-4.49955e-06
-3.60991e-05
-7.56194e-06
-8.977e-05
-1.16039e-05
7.67582e-06
-1.91659e-05
4.36392e-06
7.95298e-06
7.97961e-07
4.31315e-05
-6.71738e-05
-2.25962e-05
-0.000187122
-0.000131075
2.9005e-05
1.41265e-05
0.0001565
2.54247e-05
-5.82414e-06
6.6221e-06
4.02625e-06
-6.22983e-06
-4.73307e-07
-6.29745e-06
-6.40117e-07
-5.58971e-06
-2.75455e-06
-2.8344e-05
9.17813e-06
-5.09403e-05
-2.17249e-06
6.53642e-06
7.00567e-06
6.37093e-06
1.1351e-05
-4.72892e-06
2.54775e-05
3.20777e-05
-6.60021e-06
-5.75024e-05
6.56215e-06
3.94223e-07
-6.69167e-06
-4.33471e-06
-1.86052e-06
-3.7292e-06
-8.55221e-06
-1.62966e-06
-5.35887e-06
4.49262e-07
6.5564e-06
7.01142e-06
-3.47631e-06
6.22289e-06
2.89463e-06
9.45104e-06
5.30366e-07
-4.86508e-06
-6.06985e-06
-6.54896e-06
4.79116e-07
4.62459e-07
6.94573e-07
5.52832e-06
3.37547e-06
-5.62116e-06
-2.93105e-06
-1.04862e-05
-3.6445e-06
-6.57555e-06
5.11729e-07
5.0166e-06
9.96277e-06
1.04252e-05
-9.27491e-06
-1.21133e-06
8.79578e-06
1.62944e-06
1.81302e-06
6.82963e-06
-5.58356e-06
-6.79489e-06
-6.94421e-06
5.31476e-06
)
;

boundaryField
{
    movingWall
    {
        type            calculated;
        value           uniform 0;
    }
    fixedWalls
    {
        type            calculated;
        value           uniform 0;
    }
    frontAndBack
    {
        type            empty;
        value           nonuniform List<scalar> 0();
    }
    defaultFaces
    {
        type            empty;
        value           nonuniform List<scalar> 0();
    }
}


// ************************************************************************* //
