/*--------------------------------*- C++ -*----------------------------------*\
  =========                 |
  \\      /  F ield         | OpenFOAM: The Open Source CFD Toolbox
   \\    /   O peration     | Website:  https://openfoam.org
    \\  /    A nd           | Version:  8
     \\/     M anipulation  |
\*---------------------------------------------------------------------------*/
FoamFile
{
    version     2.0;
    format      ascii;
    class       volVectorField;
    location    "0.059";
    object      U;
}
// * * * * * * * * * * * * * * * * * * * * * * * * * * * * * * * * * * * * * //

dimensions      [0 1 -1 0 0 0 0];

internalField   nonuniform List<vector> 
424
(
(-0.002936 -0.000189897 6.80872e-26)
(-0.01465 0.000961505 0)
(-0.0131008 0.00276754 2.04592e-23)
(0.000179508 0.00315082 -1.16687e-24)
(-0.0473478 0.00514675 -2.47652e-23)
(-0.0230424 0.000844469 -3.3878e-23)
(-0.00299408 0.0138286 3.23398e-24)
(-0.000995282 0.0155038 -7.93192e-25)
(-0.0687277 0.00259445 -3.61308e-23)
(-0.0257626 0.000296793 3.10975e-23)
(-0.0703159 0.00228249 9.63726e-23)
(-0.0240357 0.000465893 0)
(-0.00519705 0.0503178 1.16789e-24)
(-0.000963559 0.0244851 0)
(-0.0744314 0.000564796 3.30258e-23)
(-0.0255786 -4.07948e-05 1.75109e-23)
(-0.0590428 0.00068913 0)
(-0.0196463 7.80925e-05 0)
(-0.000341375 0.0271104 0)
(-0.00267664 0.0732532 -2.78447e-23)
(-0.073394 4.80834e-05 3.49543e-23)
(-0.0258179 -0.000338605 -1.87545e-23)
(-0.0573137 0.000236489 0)
(-0.0196355 5.60089e-05 0)
(1.31916e-05 0.0260409 1.30697e-23)
(-0.000172704 0.0781234 2.51275e-23)
(-0.00233332 0.0684441 -3.74632e-23)
(-0.000418142 0.0233081 -3.89023e-23)
(-0.0750749 -0.000327245 5.88736e-23)
(-0.0232383 -0.000847929 0)
(-0.0150316 -0.000969337 -1.31696e-22)
(-0.00303866 0.00021562 0)
(-0.0530461 -1.91978e-05 -1.05688e-22)
(-0.0180533 3.82508e-05 9.88294e-23)
(-0.0222841 0.0479301 6.83823e-23)
(0.000239862 0.0267972 0)
(0.000145808 0.029585 -2.27068e-22)
(0.00335081 0.0631435 2.33921e-22)
(8.24594e-05 0.0746549 2.79499e-23)
(-0.000419336 0.0601076 3.9227e-24)
(-6.78398e-06 0.0199965 -3.85035e-24)
(-0.0699859 -0.00256829 -1.05445e-22)
(-0.0489852 -0.00549333 1.33516e-22)
(-0.0141014 -0.0031012 0)
(0.000223947 -0.00336395 -2.9552e-22)
(-0.0494685 -0.000265415 3.47e-22)
(-0.0162209 -3.37382e-05 0)
(-0.106049 0.152677 -1.89065e-22)
(0.809203 0.0278418 -5.01861e-23)
(-0.000696151 0.0781666 -1.62203e-23)
(-0.0057312 0.0866472 0)
(-0.00507406 0.166842 -3.61594e-24)
(-0.000244474 0.0579376 0)
(-4.4389e-05 0.0199157 0)
(-0.00400004 -0.0151963 5.94384e-23)
(-0.00125633 -0.0170669 2.58429e-22)
(-0.0531098 -0.000629218 0)
(-0.0174739 -0.00015517 0)
(0.405637 0.118728 1.41484e-22)
(0.861375 -0.0037885 -1.1917e-23)
(0.00014466 0.0544571 -9.27317e-23)
(-8.8988e-06 0.0187209 8.78995e-23)
(-0.00671148 -0.0544193 0)
(-0.0010416 -0.0268061 0)
(0.551432 0.0129202 1.56439e-22)
(0.882727 -0.00213946 0)
(0.000408013 0.0516033 -7.97516e-23)
(9.87532e-05 0.0174734 7.33904e-23)
(-0.000335101 -0.0292929 6.02644e-23)
(-0.0029825 -0.0790174 -1.8595e-23)
(0.880715 -0.00128593 -1.38271e-23)
(0.626365 0.00206111 -1.15918e-22)
(-0.00228617 0.0558724 0)
(-0.00020472 0.0209829 0)
(7.71677e-05 -0.0288831 4.72762e-23)
(-0.000366281 -0.0834746 1.91047e-23)
(-0.00189905 -0.0658925 -3.97204e-22)
(-0.000343468 -0.0224339 0)
(0.879093 -0.000317038 1.30628e-23)
(0.636993 -0.000767962 -4.91234e-23)
(0.826678 -0.0267488 0)
(0.000338148 -0.0288213 -9.09957e-23)
(0.88177 0.0014074 0)
(0.886708 0.00204228 0)
(0.865837 0.00377291 0)
(-0.0195219 -0.0491252 0)
(0.00355487 -0.0683057 -4.80773e-22)
(0.000174713 -0.0308299 5.95667e-22)
(0.000290602 -0.0821646 4.36574e-23)
(-0.000559754 -0.0577193 0)
(-3.69044e-05 -0.0192424 0)
(0.639145 -0.000725848 -2.08441e-23)
(-0.104744 0.00186882 -4.20513e-23)
(0.447582 -0.115196 9.64674e-22)
(-0.000517924 -0.0839459 -8.91265e-23)
(0.641629 0.00131795 -1.2372e-22)
(0.643153 -0.00139818 2.5737e-22)
(0.570038 -0.0108385 -1.24184e-21)
(-0.108401 -0.154017 -1.80904e-22)
(-0.00644887 -0.179389 7.01045e-22)
(-0.00653557 -0.0905002 -5.69197e-22)
(5.52838e-05 -0.0573215 -3.09732e-23)
(3.51884e-05 -0.0196905 3.00377e-23)
(-0.0932133 5.78925e-05 0)
(-0.0405101 -4.3471e-05 -4.0973e-23)
(0.000387546 -0.0594184 -1.38401e-22)
(6.0881e-05 -0.0204884 -1.31588e-22)
(-0.0956185 -0.00031817 2.40228e-23)
(-0.0338662 6.26134e-06 0)
(-6.39978e-05 -0.0579728 9.95369e-23)
(8.55294e-05 -0.0199438 -9.48899e-23)
(-0.0893524 -0.000141646 -2.48825e-22)
(-0.0351855 -0.000111248 -2.27463e-23)
(-0.00299865 -0.0605754 0)
(-0.000220502 -0.0234954 0)
(-0.0824137 0.000297801 1.35984e-22)
(-0.0326844 -6.7175e-05 0)
(-0.0935549 -0.00161874 0)
(-0.0294536 -9.44987e-06 1.21639e-22)
(-0.0350922 -0.000114657 0)
(-0.0797189 0.017101 2.51291e-24)
(-0.0236528 0.0118461 0)
(-0.0636701 0.0352305 0)
(-0.0121527 0.0248749 -1.84892e-24)
(-0.129954 0.107064 2.70442e-23)
(-0.15764 0.0741104 4.7711e-22)
(-0.086405 0.136084 3.6019e-23)
(-0.10746 0.116571 -1.33027e-23)
(-0.154463 0.0625005 -8.02864e-22)
(-0.159234 0.0373072 -2.63906e-23)
(-0.136478 0.0285343 -7.20567e-22)
(-0.12288 0.028826 -1.92549e-22)
(-0.14642 0.0477312 -6.42728e-22)
(-0.166163 0.051169 8.39062e-22)
(-0.173034 0.0243164 -6.00117e-22)
(-0.180458 0.026818 1.08104e-22)
(-0.111996 0.00669754 1.813e-22)
(-0.165182 0.00739555 1.2448e-21)
(-0.109415 0.00549226 2.62631e-22)
(-0.136124 0.00295584 3.40115e-22)
(-0.0367885 0.064496 2.98929e-23)
(-0.103678 0.113216 0)
(-0.0718113 0.0680747 -2.47445e-23)
(-0.101884 0.091578 0)
(-0.0735564 0.138971 5.30066e-23)
(-0.0750734 0.148122 -1.36502e-22)
(-0.0193329 0.086372 -2.9754e-25)
(-0.0501105 0.165053 2.19496e-22)
(-0.0697482 0.133898 -4.78467e-23)
(-0.047232 0.157503 2.86954e-22)
(-0.0615813 0.103845 -5.76741e-23)
(-0.0975096 0.092245 -2.77339e-23)
(-0.108749 0.0662032 0)
(-0.0950757 0.0359753 1.22419e-22)
(-0.0232855 0.00244705 -2.99266e-22)
(-0.0654436 0.01415 3.45265e-22)
(-0.160661 0.00870732 0)
(-0.179676 0.00904206 0)
(-0.18813 0.00221176 -8.63605e-22)
(-0.124763 0.000722772 -1.54642e-21)
(-0.181783 0.00213004 2.80043e-21)
(-0.102232 0.00153781 7.08771e-22)
(-0.144494 -0.000259758 7.39593e-22)
(-0.0349162 0.131582 -2.11398e-23)
(-0.0443132 0.153525 2.05919e-23)
(-0.0339248 0.178028 -2.3469e-22)
(-0.00640045 0.118395 7.74691e-22)
(-0.0204714 0.182797 1.15943e-22)
(-0.0260343 0.150736 4.82151e-23)
(-0.0147826 0.1681 -3.00195e-22)
(-0.0335724 0.0890353 1.67372e-22)
(-0.0206251 0.131556 -1.17257e-21)
(-0.0144251 0.0642203 0)
(-0.00246944 0.0228871 0)
(-0.170548 -0.00096832 8.75405e-22)
(-0.187673 -0.000297399 -2.61177e-21)
(-0.127481 0.000711212 -9.19973e-22)
(-0.17895 0.000118003 2.91442e-21)
(-0.100081 -4.62326e-05 -1.15724e-21)
(-0.145352 -0.000447459 1.43858e-21)
(-0.00533126 0.164839 -6.92815e-22)
(-0.00649923 0.183286 5.23063e-22)
(0.00121398 0.1286 0)
(-0.004902 0.160051 0)
(-0.00167914 0.18773 -1.05472e-21)
(-0.00396796 0.103302 8.01896e-22)
(-0.000375943 0.133306 0)
(-0.17035 0.00217752 8.744e-22)
(-0.185634 0.0013804 1.97124e-22)
(-0.13153 0.0007166 1.26099e-21)
(-0.178075 -0.00155632 -1.91413e-21)
(-0.18372 -0.00332079 -2.01379e-21)
(-0.0963031 -0.000686788 -2.26909e-21)
(-0.136418 -0.000602692 9.84809e-22)
(0.00381208 0.168826 7.66848e-22)
(0.000864383 0.122798 -8.12013e-22)
(-0.000313239 0.181876 2.5593e-21)
(0.00247919 0.187908 -1.97769e-21)
(-0.000652071 0.105055 0)
(0.00062817 0.145931 0)
(-0.162234 -0.00624976 -1.4507e-21)
(-0.181793 -0.00877811 0)
(-0.180328 -0.0274009 1.76531e-21)
(-0.114246 -0.00652772 1.05927e-21)
(-0.17025 -0.0355109 -1.9664e-21)
(-0.171125 -0.0328405 -3.24544e-21)
(-0.154706 -0.00740616 1.9586e-21)
(-0.161095 -0.0241904 1.79043e-21)
(-0.0954339 -0.000730699 -2.94384e-22)
(-0.122656 0.00042741 0)
(-0.000570743 0.168844 -4.27424e-22)
(-0.00393644 0.132674 0)
(0.00113318 0.180542 0)
(-0.000381018 0.186263 3.26987e-22)
(-6.53622e-05 0.0990881 0)
(0.00167026 0.144364 0)
(-0.148539 -0.0653302 0)
(-0.161636 -0.0580292 -2.16169e-21)
(-0.161985 -0.0621409 2.91988e-21)
(-0.134385 -0.0871424 0)
(-0.0786317 -0.0163396 0)
(-0.127546 -0.0277426 -1.2221e-21)
(-0.146662 -0.0352207 -2.28636e-21)
(-0.134178 -0.069135 2.80829e-21)
(-0.146119 -0.0820172 -1.47929e-22)
(-0.0647342 -0.0339356 -7.03433e-22)
(-0.0248679 -0.0119614 0)
(-0.0137919 -0.025728 2.1484e-21)
(-0.136448 -0.0334176 7.37921e-22)
(-0.140733 -0.0566539 -1.83379e-21)
(-0.0867958 -0.00147783 -1.29962e-21)
(-0.118162 -0.0266868 1.85715e-21)
(-0.117361 -0.0719167 8.6123e-22)
(-0.120993 -0.0882525 0)
(-0.104326 -0.102053 1.57276e-21)
(-0.0302088 0.234857 3.19097e-24)
(-0.128211 0.299468 -2.98934e-21)
(-0.1412 0.223797 3.13432e-21)
(0.118556 0.186748 -2.51996e-21)
(-0.015449 0.17192 1.44028e-21)
(-0.0177922 0.139155 -1.74393e-21)
(-0.0481517 0.207887 -8.93423e-22)
(-0.0168493 0.183906 -3.07495e-21)
(0.000772118 0.17677 -7.87766e-22)
(-0.00789496 0.181133 3.18221e-21)
(0.00109404 0.0941107 0)
(0.00223896 0.134306 2.89816e-22)
(-0.0626492 0.199743 4.23156e-21)
(-0.0997238 0.192621 -1.31936e-21)
(-0.107502 -0.119129 4.15215e-21)
(-0.128691 -0.104825 2.47838e-21)
(-0.125932 -0.10669 -3.33253e-21)
(-0.0773279 -0.0621051 5.33914e-22)
(-0.0964799 -0.120771 0)
(-0.102243 -0.0866625 2.48065e-22)
(-0.0382262 -0.0629068 -3.00289e-21)
(-0.0847055 -0.14131 -5.84349e-21)
(-0.0226843 -0.0888443 0)
(-0.0698108 -0.142146 2.05126e-21)
(-0.0496923 -0.159858 0)
(-0.0788807 -0.0274518 3.18106e-21)
(-0.0957272 -0.0620362 0)
(-0.0602204 -0.106014 -4.67065e-21)
(-0.0861421 -0.0946001 1.13909e-21)
(-0.0172797 -0.00145191 1.35889e-21)
(-0.0507128 -0.00948755 -5.47207e-21)
(-0.105483 0.238419 -5.34552e-22)
(-0.127784 0.202594 0)
(0.00996076 0.194905 1.96854e-21)
(-0.135449 0.109086 -1.29744e-21)
(0.264734 0.0573657 9.57993e-22)
(-0.0273406 0.180212 2.01691e-21)
(-0.0485848 0.178431 -2.27142e-21)
(-0.00850278 0.150325 -1.66486e-21)
(-0.0187046 0.153271 2.8749e-21)
(0.000854986 0.091356 1.34305e-21)
(-0.00632794 0.118235 -8.88811e-22)
(-0.155157 0.0189307 0)
(-0.10814 0.12605 -1.9158e-21)
(-0.139513 0.0884101 1.08991e-22)
(-0.146392 0.0485532 3.14565e-21)
(-0.0530534 0.137934 -1.22837e-21)
(-0.0850259 0.113866 1.19672e-21)
(-0.0633991 -0.147567 2.24965e-22)
(-0.0629048 -0.162562 5.0555e-22)
(-0.0471679 -0.172942 0)
(-0.0377217 -0.127851 -2.84041e-22)
(-0.00864928 -0.129622 1.90401e-23)
(-0.0279894 -0.178632 -3.58783e-21)
(-0.030714 -0.154762 1.83875e-21)
(-0.0212006 -0.167511 -2.03164e-21)
(-0.0332026 -0.0925911 3.19134e-21)
(-0.0244208 -0.132048 -2.66098e-21)
(-0.0126061 -0.0609744 0)
(-0.00220186 -0.0213934 0)
(-0.0530552 0.0573248 -4.54554e-22)
(-0.11387 0.0269313 1.63245e-21)
(0.105224 0.0607315 -6.68022e-22)
(0.37542 0.017653 1.67358e-21)
(-0.12305 0.0162615 0)
(-0.172611 0.0106444 0)
(-0.0163184 0.119126 -2.08485e-21)
(-0.033141 0.114435 0)
(-0.163622 -0.0042329 0)
(-0.160878 0.00215114 0)
(-0.00694426 0.0859305 0)
(-0.00615932 0.0971889 -9.49267e-22)
(-0.12311 0.00537946 0)
(-0.121503 0.0338052 -3.18306e-21)
(-0.0434967 0.0642138 0)
(-0.082137 0.0683607 0)
(-0.0965968 0.0406431 2.69351e-21)
(-0.1502 -0.0106067 5.67795e-22)
(-0.0119612 -0.182361 2.51298e-21)
(-0.011368 -0.167589 0)
(0.000252512 -0.135154 -4.01937e-23)
(-0.00728612 -0.159265 0)
(-0.00351097 -0.186104 0)
(-0.00453339 -0.102085 -3.5212e-21)
(-0.00281823 -0.132122 3.21291e-21)
(-0.0441579 0.0167188 0)
(0.1248 0.0123432 -1.38811e-21)
(0.375666 0.00255091 0)
(-0.182758 0.00432251 -4.68454e-22)
(-0.153153 0.00878668 1.18235e-23)
(-0.142663 0.00537107 -2.50518e-22)
(-0.172614 0.00599804 1.30657e-22)
(-0.00426185 0.0314523 5.48592e-21)
(-0.0320844 0.0259176 -1.03255e-21)
(-0.0693791 0.0123167 -2.11793e-21)
(-0.0823871 -0.0142328 0)
(-0.0826083 -0.00360365 0)
(0.000297915 0.00911522 1.72038e-21)
(-2.44058e-05 0.0229834 -6.50318e-21)
(-0.0635062 -0.00552484 0)
(0.00202292 -0.175021 -5.44287e-22)
(0.000380861 -0.134944 3.98483e-23)
(-0.00164389 -0.179601 -4.63201e-21)
(0.00125159 -0.18749 4.30825e-21)
(-0.00146772 -0.0997747 0)
(0.000229521 -0.14313 -5.35956e-22)
(0.0990628 -0.00268311 0)
(0.363292 -0.00154235 0)
(-0.16683 -0.00193008 4.2747e-22)
(-0.092828 -0.0022404 -3.64888e-22)
(-0.14841 0.000225622 3.31497e-22)
(-0.182031 0.0067432 -5.56575e-22)
(-0.0244886 -0.000849339 0)
(0.13122 -0.186399 -5.76531e-21)
(-0.150138 -0.226957 9.82746e-21)
(-0.000618848 -0.172973 1.67242e-22)
(-0.00342836 -0.137451 0)
(0.000955009 -0.179188 3.94842e-21)
(-0.000663795 -0.186311 -2.87809e-21)
(0.000625278 -0.0970204 0)
(0.00241464 -0.148298 -1.02843e-21)
(0.090952 -0.00012215 -3.84587e-23)
(0.357819 -0.00326468 -2.09549e-21)
(-0.189053 -0.00314931 -2.1409e-21)
(-0.101927 -0.000178567 -6.25786e-22)
(-0.151655 0.00168131 5.32857e-22)
(-0.189783 -0.00175637 0)
(0.267627 -0.0533224 -6.96172e-21)
(0.026366 -0.166604 -6.40572e-21)
(-0.0150119 -0.173288 0)
(-0.0192404 -0.143785 0)
(0.131339 -0.00836301 -3.06326e-21)
(0.383145 -0.0157346 2.61086e-21)
(0.128916 -0.0594186 1.15831e-20)
(-0.0540596 -0.212786 0)
(-0.112208 -0.219799 9.19456e-21)
(-0.0350519 -0.250733 1.60224e-21)
(-0.147582 -0.306085 -2.59641e-21)
(-0.0665474 -0.195509 -1.80188e-23)
(-0.0153819 -0.183492 -3.83789e-21)
(0.000210924 -0.177986 1.65009e-21)
(-0.00636384 -0.180785 6.07315e-21)
(0.00117431 -0.106698 -3.64511e-21)
(0.000157596 -0.145229 2.36683e-21)
(-0.0479467 -0.0138275 2.45576e-21)
(-0.169409 0.00266175 3.7379e-21)
(-0.16484 -0.00565801 -3.37344e-21)
(-0.143897 7.09886e-05 2.48787e-22)
(-0.174296 -0.000250597 0)
(-0.0616782 -0.0658471 -3.8454e-21)
(-0.147701 -0.173641 -2.63115e-21)
(-0.0446784 -0.175834 -6.38866e-21)
(-0.0270823 -0.177124 7.55009e-22)
(-0.12639 -0.0150648 0)
(-0.114905 -0.0286172 -9.9705e-22)
(-0.130315 -0.17349 -6.74508e-21)
(-0.0889306 -0.178261 8.70798e-21)
(-0.0734854 -0.131064 6.39503e-21)
(-0.0510748 -0.140273 0)
(-0.00744834 -0.143641 0)
(-0.0175712 -0.147951 -2.51028e-21)
(-0.00140203 -0.0992619 0)
(-0.00755885 -0.121857 0)
(-0.186518 0.00012308 2.82184e-21)
(-0.177065 -0.0053079 -5.44347e-21)
(-0.13662 0.00214895 -2.61901e-22)
(-0.16843 -0.00295488 -1.59653e-21)
(-0.155237 -0.0198085 5.16628e-21)
(-0.147648 -0.0742729 -4.46187e-21)
(-0.0183657 -0.117628 1.505e-21)
(-0.0341665 -0.11645 3.62301e-21)
(-0.173442 0.004427 4.46156e-21)
(-0.155518 0.00195103 -1.78855e-22)
(-0.0429382 -0.0654051 -8.00966e-21)
(-0.0769204 -0.0786147 3.85605e-22)
(-0.109531 -0.0626646 1.41767e-21)
(-0.00735714 -0.0840744 0)
(-0.00803728 -0.0946466 -2.74651e-21)
(-0.137221 -0.00455741 -2.16304e-21)
(-0.157914 0.00806026 1.5381e-21)
(-0.0879635 0.0166527 1.42688e-21)
(-0.00658986 -0.0284906 0)
(-0.0340164 -0.0216028 3.566e-21)
(-0.102352 0.0107636 1.60375e-22)
(-0.093183 -0.00934971 0)
(0.000154566 -0.00962344 0)
(-0.00109695 -0.0231202 0)
(-0.0612063 0.00665311 -3.74762e-21)
(-0.0225761 0.00111879 2.94953e-21)
)
;

boundaryField
{
    movingWall
    {
        type            fixedValue;
        value           uniform (1 0 0);
    }
    fixedWalls
    {
        type            noSlip;
    }
    frontAndBack
    {
        type            empty;
    }
    defaultFaces
    {
        type            empty;
    }
}


// ************************************************************************* //
