/*--------------------------------*- C++ -*----------------------------------*\
  =========                 |
  \\      /  F ield         | OpenFOAM: The Open Source CFD Toolbox
   \\    /   O peration     | Website:  https://openfoam.org
    \\  /    A nd           | Version:  8
     \\/     M anipulation  |
\*---------------------------------------------------------------------------*/
FoamFile
{
    version     2.0;
    format      ascii;
    class       surfaceScalarField;
    location    "0.06";
    object      phi;
}
// * * * * * * * * * * * * * * * * * * * * * * * * * * * * * * * * * * * * * //

dimensions      [0 3 -1 0 0 0 0];

internalField   nonuniform List<scalar> 
1107
(
0.000315988
-0.000643388
0.000633495
-0.000306094
0.000616968
-0.00030098
-2.96871e-05
0.000646655
0.000304962
0.000538556
-0.000106654
-0.000736864
-0.000968718
0.000630292
-9.76562e-05
0.000701464
0.000286064
-5.3602e-05
-1.49162e-05
-3.7272e-05
0.000683927
-3.30508e-05
1.43466e-05
-8.79502e-05
0.000180752
-0.000148834
-6.4969e-05
0.000300272
-0.000856384
-0.00126768
0.000599239
-0.000207464
0.0007401
0.000760966
-9.67739e-05
4.17067e-05
0.000814907
-9.5648e-05
3.58076e-06
-4.28362e-05
-1.13354e-05
0.000725634
0.00085306
2.99203e-05
-6.80732e-05
6.4473e-05
-0.000126751
-8.65566e-05
2.51488e-05
-4.8626e-05
0.000227396
-0.00014076
-0.000213387
0.000277848
-0.000115421
0.000296553
-0.000875089
-0.0015106
0.000539474
-0.000366494
0.000758269
0.000828762
-0.000185436
0.00089922
-0.000166105
5.21558e-06
-2.2903e-05
-6.11986e-06
-2.22882e-05
0.000865037
1.03106e-05
0.000755554
0.000946156
-0.000115009
0.00096345
-3.95823e-05
0.000951831
-2.38993e-05
3.55184e-05
3.54041e-05
-7.27547e-05
-4.9206e-05
1.3622e-05
-2.68439e-05
-8.24015e-05
-0.000131113
0.000322168
-0.000215175
-0.00032038
0.000397172
-0.000190426
0.000306688
-0.000784604
0.000459871
-0.00166379
-0.000570348
0.000743328
0.000880858
-0.000308026
0.000968426
-0.000253673
2.99796e-06
-1.2279e-05
-3.12189e-06
8.81558e-05
0.000916876
-5.32007e-05
0.000853458
-1.23196e-05
0.000765865
0.00102608
-0.000172663
0.00105044
-6.3938e-05
0.0010396
4.63581e-05
0.000999388
0.000128364
-0.000118497
0.000932792
0.000185093
5.74532e-05
-0.000104206
-3.56487e-05
2.7605e-05
-1.93579e-05
1.04142e-05
-9.6531e-06
-0.000129772
-0.000216516
-6.19186e-05
-0.000172059
0.000691194
-0.000801671
0.000902292
-0.00046699
0.00101087
-0.000362252
2.20822e-06
-4.07299e-06
-9.13672e-07
0.000865634
-6.7255e-05
0.000823927
-2.36705e-05
0.000753545
0.000822835
-0.000147389
0.000257345
0.00107954
-0.000241327
0.00111062
-9.50202e-05
0.0011023
5.46778e-05
0.0010582
0.000172461
0.000974447
0.000268847
4.56522e-05
-3.06077e-05
-7.69631e-05
2.44419e-05
-1.44383e-05
1.14683e-05
-6.38428e-06
4.2795e-06
-2.46425e-06
0.000877214
-0.00065301
0.00100522
-0.000490255
8.82602e-07
-6.76098e-07
-3.10697e-08
0.00033412
0.000670004
-0.000181289
0.000790597
-7.23518e-05
0.000785607
-2.89341e-05
0.000729875
0.000827198
0.000404593
0.000622657
0.000538662
0.000388286
-0.00129505
0.00152942
0.00108438
-0.000320493
0.00112422
-0.000134861
0.00112303
5.58749e-05
0.00107763
0.000217856
0.000975123
0.000371355
-3.58721e-05
-5.57984e-05
6.10628e-05
-1.92686e-05
-3.10418e-05
-9.09264e-06
-1.65603e-05
-3.38004e-06
-8.17685e-06
-6.7063e-07
-3.38551e-06
-7.01699e-07
0.000988028
0.000345385
-0.000945127
0.000371506
-0.000996552
0.000688044
-7.87364e-05
0.000739096
-2.58415e-05
0.000700941
0.00079341
0.000586306
0.000547522
0.00078455
0.000411871
0.00166507
0.000483319
0.00091658
-5.788e-05
-9.54234e-05
9.7505e-05
-3.133e-05
-5.75918e-05
-1.4786e-05
-3.31043e-05
-5.47322e-06
-1.74896e-05
-1.09568e-06
-7.76304e-06
-1.79738e-06
0.000101493
0.00030062
-5.67275e-05
0.000227753
-0.000801374
0.000357806
-0.000666314
0.000680875
-2.05155e-05
0.000675099
0.000415833
0.000168979
-4.46154e-05
-0.000125331
7.45231e-05
-2.45225e-05
-7.76847e-05
-1.17991e-05
-4.58278e-05
-4.48839e-06
-2.48003e-05
-9.73038e-07
-1.12784e-05
-2.77042e-06
0.000246509
0.000202911
-0.000148801
0.000201308
-3.02825e-05
0.000136225
-0.000579793
0.000342994
-0.000328433
0.000654584
0.000297642
0.0003647
-1.47483e-05
-0.000134197
2.36141e-05
-8.35793e-06
-8.4075e-05
-4.1364e-06
-5.00493e-05
-1.65931e-06
-2.72774e-05
-4.04885e-07
-1.25328e-05
-3.17531e-06
0.000150026
0.000136437
-8.35509e-05
0.000129062
-7.65547e-05
0.000120975
-1.50329e-05
7.00049e-05
-0.000306804
0.000326151
0.000201838
0.000245829
1.40032e-05
-0.000122538
-2.56623e-05
7.11605e-06
-7.71879e-05
3.17105e-06
-4.61043e-05
1.11881e-06
-2.52251e-05
1.79786e-07
-1.15938e-05
-2.99552e-06
0.000129909
7.88712e-05
-7.2344e-05
8.59569e-05
-4.04457e-05
7.41789e-05
-2.97583e-05
5.9344e-05
-4.37199e-06
1.93467e-05
0.000119927
0.00021182
-8.92447e-05
5.99595e-05
0.000149212
1.62261e-05
-3.57682e-05
-0.000102996
7.58041e-06
-6.85423e-05
3.24057e-06
-4.17645e-05
1.16934e-06
-2.31539e-05
2.25147e-07
-1.06496e-05
-2.77037e-06
3.84827e-05
-4.88562e-05
4.86093e-05
-3.49965e-05
4.90406e-05
-1.53074e-05
3.54204e-05
-5.83467e-06
1.49747e-05
-5.22674e-05
2.39939e-05
8.82331e-05
-3.18744e-05
5.7686e-05
-6.75761e-05
-1.25541e-05
-4.24743e-05
-2.81441e-06
-2.03893e-05
-5.58478e-06
1.45123e-05
-2.8297e-05
2.3119e-05
-2.33658e-05
2.72334e-05
-1.31892e-05
2.31944e-05
-3.08137e-06
9.14006e-06
4.93726e-06
-2.58165e-05
4.48731e-05
-2.07317e-06
7.06265e-06
7.24711e-06
-1.22366e-05
-1.29741e-05
5.60158e-05
-6.3431e-05
-1.85589e-05
-1.92047e-06
-8.22204e-06
1.50798e-05
2.33611e-06
-1.36404e-05
8.21484e-06
-1.33929e-05
1.26475e-05
-8.77996e-06
1.27205e-05
-2.71544e-06
6.05869e-06
1.56235e-06
4.37477e-06
-8.01028e-06
-4.97808e-07
3.46554e-06
4.09493e-06
-1.88679e-06
8.47199e-06
-1.68448e-05
1.02596e-05
-3.09369e-06
-3.37547e-07
1.51077e-06
-1.7865e-06
-4.09944e-06
9.00297e-07
-6.32581e-06
4.24317e-06
-4.98849e-06
5.79069e-06
-1.85011e-06
3.34325e-06
3.50179e-06
1.70201e-06
-3.64146e-06
1.67437e-06
2.20261e-06
1.17931e-07
1.46082e-06
-7.52242e-07
3.0454e-06
6.17885e-06
-2.68095e-06
4.81058e-06
-2.38744e-05
2.17447e-05
-2.16868e-06
2.16555e-06
-3.09056e-06
-2.23181e-06
1.07753e-07
-1.41258e-06
-1.78656e-06
2.38384e-07
-2.32103e-06
1.84421e-06
-1.04201e-06
1.49313e-06
3.83855e-06
-3.39685e-07
2.92421e-09
2.65752e-06
7.18874e-07
1.3367e-06
9.83842e-07
2.42194e-07
4.66382e-07
-2.00518e-07
5.64975e-07
-5.82521e-07
5.3931e-06
-1.2111e-06
1.73668e-06
-2.69426e-06
-1.40168e-06
1.33541e-06
-1.47716e-06
1.72331e-07
-9.3738e-07
-6.10793e-07
4.71101e-09
-4.81535e-07
4.51128e-07
2.70071e-06
-2.27221e-06
3.41004e-06
2.65144e-06
-3.33603e-07
1.7973e-06
2.58272e-07
8.8206e-07
3.43976e-07
1.8264e-07
8.32233e-08
-1.7546e-08
-1.68235e-06
-9.48964e-07
1.42022e-06
-6.59356e-07
9.94358e-07
-8.39744e-07
6.97996e-07
-8.71027e-07
1.05977e-07
-4.95138e-07
-1.10944e-07
-3.04077e-08
1.49944e-06
-2.03041e-06
3.23168e-06
1.72235e-06
-1.34312e-06
1.68055e-06
-2.1686e-07
1.07328e-06
6.70479e-08
4.61697e-07
6.49187e-08
6.56772e-08
-2.46317e-06
-1.3919e-06
2.17272e-06
-1.0435e-06
-5.64824e-07
-3.36092e-07
4.90706e-07
-4.53911e-07
2.8088e-07
-4.22211e-07
3.30498e-08
-1.41352e-07
2.15013e-06
1.27357e-06
-1.92426e-06
8.33981e-07
-1.14204e-06
1.01503e-06
-6.77602e-07
9.56696e-07
-1.00274e-07
5.23202e-07
5.54253e-09
1.30596e-07
-2.92644e-06
-7.50924e-07
1.2142e-06
-1.62878e-06
-8.06624e-07
-6.08472e-07
-2.92444e-07
-1.52267e-07
1.89061e-07
-2.03426e-07
6.2094e-08
-1.08302e-07
-2.82608e-06
1.89917e-07
-2.9028e-07
1.29148e-06
-1.96743e-06
1.34832e-06
7.5923e-07
4.3101e-07
-5.58019e-07
5.42918e-07
-2.63823e-07
4.49327e-07
-2.63999e-08
1.36138e-07
-1.95341e-06
-4.26298e-07
-1.01055e-06
-4.04543e-07
-3.24638e-07
-1.20072e-07
-5.34429e-08
3.90783e-08
-4.62078e-08
-1.87844e-06
1.14948e-07
7.61355e-07
7.96646e-07
3.93593e-07
1.98633e-07
-2.13735e-07
2.41459e-07
-5.59558e-08
1.09738e-07
-1.22491e-06
-2.11943e-07
-5.70004e-07
-1.59177e-07
-1.45721e-07
-2.77941e-08
-7.12962e-09
-1.17083e-06
6.08655e-08
3.87175e-07
4.30609e-07
1.61616e-07
7.14528e-08
-4.37287e-08
5.37818e-08
-6.97768e-07
-8.41788e-08
-2.69206e-07
-3.56926e-08
-3.49236e-08
-6.63298e-07
2.63952e-08
1.54485e-07
1.95526e-07
3.75425e-08
1.0053e-08
-3.33688e-07
-1.96967e-08
-7.06163e-08
-3.14588e-07
7.29489e-09
3.5423e-08
4.75953e-08
-9.03131e-08
-8.30184e-08
0.000597179
-0.00138178
-0.00106661
0.000323401
-0.000539917
0.000860691
-0.000537289
0.000540311
0.00130424
-0.000763927
0.00111381
-0.000267972
0.00157006
-0.00183803
0.000503452
-0.00029822
-0.00139489
0.000630963
0.000139436
-0.000311495
-0.000400482
4.44286e-05
-0.000121392
-0.000267066
0.000331837
-0.000732319
0.00117714
-0.000845304
0.000639851
-0.000755038
0.00207401
-0.00144305
0.000235981
0.00130963
-0.00107365
0.00101141
0.000358405
0.0010192
-0.00177424
-0.000423849
-6.03289e-05
0.000230335
-0.000290664
-3.67316e-05
-0.00076905
-6.73995e-05
-0.000701651
0.00137385
-0.00144125
0.000528546
-0.00124569
0.00142802
-0.00185187
0.000354363
0.000886951
-0.000532588
-0.00124536
0.000755101
-0.001379
0.00105851
-0.000623902
0.000989862
-0.00223555
-0.000862004
0.000861377
0.000803695
0.00177796
-0.000412841
0.000999148
-0.00149379
0.00135892
-0.000435275
-0.0011621
0.00074926
-0.000790746
-0.00132494
0.00138081
3.39865e-05
-0.00129326
0.000502515
-0.00107541
0.000305408
-0.000193159
0.000132822
-0.000325981
-0.000568829
0.000281177
-0.000850006
-0.00116007
0.000202501
-0.00136257
-0.00203305
0.00114328
-0.00200529
-0.000610693
-1.32099e-05
-0.000666873
0.000231597
-0.000680083
-2.48838e-05
-0.00200817
-0.00203017
-0.000901496
0.00170519
-0.000116946
0.000882201
0.000282036
0.00149592
0.00198723
0.0016649
-2.63856e-05
0.000908587
-0.0010164
0.000990011
-0.000267136
-0.000586348
0.000620334
-0.00035475
-0.000970854
0.000703718
-0.000468339
-0.000797451
0.000329111
-0.000492043
0.000128292
-0.000251457
8.11782e-05
-0.000332636
-0.000768828
3.48882e-05
-0.000803716
-0.00132769
-0.000351043
-0.000976643
-0.00235921
0.000885154
-0.0012399
0.000205071
-0.0018251
-0.00142634
0.000186437
0.000920497
-0.00274559
-0.00143872
0.000539113
0.00144811
0.0014477
-0.00100889
0.00137359
0.00065601
0.00210412
9.93272e-05
0.00134837
0.00108934
4.46797e-05
0.00104466
0.000748398
0.000218702
0.000529696
0.000547813
0.000676105
-0.000750236
-0.000309022
1.00061e-05
-0.000319028
-0.00079371
-0.000349464
-0.000444246
-0.00132611
-0.000424872
-0.000901234
-0.00186359
0.00201417
-0.00182773
-0.000731427
0.00173293
-0.00248317
-9.47961e-05
0.00128851
-0.00201993
-0.000575083
-0.000616866
0.000862695
0.000756725
-0.00121248
0.00196921
0.00089164
0.00224001
0.00140677
0.000833243
0.00245143
0.00298112
-0.000632699
0.00205889
-0.00142619
0.00311587
-0.000134746
-0.00034469
0.000564973
-0.00114006
-9.40429e-05
-0.000250647
-0.000538289
-0.000119176
-0.000419113
-0.00102041
-0.000455437
0.00182382
0.000235068
-0.00172902
-0.000290911
-0.000732912
0.00096798
-0.000977001
-0.000163056
0.00064795
-0.000938861
-0.000329051
-0.00117836
0.00044545
-0.00032511
0.00053693
0.000537585
2.78816e-05
-0.000605371
0.000577489
-0.00115048
-0.000122753
0.000349029
-0.000226276
-0.000728124
-0.000702469
0.00124005
0.00126674
0.00209998
-0.000341504
-0.000808976
-0.00176769
0.0012169
0.000883083
0.00108215
-0.000685536
-0.000286415
0.000394789
-0.000557844
-0.000676537
0.000221101
-0.000281748
-0.000125808
-0.000160607
-0.000544921
-0.000323821
-0.00126051
0.000321647
-0.000292528
-0.000608332
0.000315804
-0.000162882
-0.00050291
-5.49347e-05
0.000831961
-0.000510314
-0.000676282
0.000513401
-9.87932e-05
0.000368819
-1.97896e-05
0.000270026
-0.000219451
0.000199662
1.71713e-05
0.000144565
-0.000161737
-0.00020228
-0.000428556
-0.000259105
-0.000169451
-0.000112886
0.000262098
0.000424044
-0.00014904
0.000573084
0.00109101
0.000317073
-0.000576178
-0.000411051
-0.00122003
0.000468883
0.000622131
-0.000666431
-0.000553596
0.00135197
-2.15392e-05
0.000109772
0.000240559
0.000113852
-0.000274459
-1.08562e-05
-0.000466169
0.00018442
-0.000521103
-0.000100938
-0.000173521
-0.000424759
-0.000240338
0.000483499
2.99017e-05
-0.000799303
0.000288989
-0.000531784
1.06807e-05
-0.000242795
-0.000300698
0.0003306
-0.000346332
4.56339e-05
-7.63063e-05
-0.000238634
0.000162328
-3.89727e-05
-0.000131931
9.29581e-05
1.26346e-05
5.50278e-06
2.43579e-05
-2.98607e-05
1.27499e-05
-2.4034e-05
4.83919e-05
6.97501e-05
-9.37841e-05
8.23847e-05
-4.69036e-05
-4.68805e-05
-0.00020864
-2.42364e-05
-5.62434e-06
-7.11169e-05
-1.78609e-05
-0.000102219
-0.000106421
-0.000271671
-0.000104116
-0.000167555
-0.000680294
-9.41498e-05
0.000334709
0.000478934
0.00110107
-0.000443367
-0.000236926
0.000996964
0.000104102
1.86833e-05
2.61898e-05
0.000128456
4.65283e-05
8.19272e-05
0.000381237
5.40345e-05
-0.000227556
1.35416e-05
-7.32759e-05
-0.00015428
-0.000313614
-0.000302934
-0.000234839
-6.80947e-05
-0.000477634
-0.000147034
0.000191868
-2.95401e-05
-0.000237502
9.0468e-05
5.34309e-05
2.89538e-05
0.000146389
0.000116849
4.09559e-05
7.43596e-06
6.99097e-05
1.76956e-05
-4.91004e-05
-2.20165e-05
-0.000155522
-2.30623e-05
5.20142e-06
-4.50788e-05
-2.80887e-06
1.51986e-05
-1.18819e-07
4.13883e-05
-0.000103183
-5.23381e-05
-0.000270738
-0.000148553
-0.000122185
-0.00038548
0.000341925
3.93123e-05
0.000446027
6.0547e-05
9.39978e-06
3.19886e-05
9.1327e-05
0.000130639
9.70476e-05
-2.71378e-05
0.000213897
-0.00023627
8.19899e-05
-0.000304365
-1.85589e-05
-5.3931e-06
-8.04075e-06
7.92194e-06
-6.52999e-06
-4.07271e-05
-4.35165e-06
-9.30652e-05
-1.26956e-05
9.88676e-06
-1.70472e-05
6.24529e-06
1.1412e-05
-3.49011e-06
4.34006e-05
-7.51541e-05
-1.79111e-05
-0.000197339
-0.000136792
3.34058e-05
9.99479e-06
0.000164045
2.72534e-05
-8.37919e-06
4.88908e-06
5.07173e-06
-8.16229e-06
-1.45826e-06
-9.83745e-06
-7.64972e-07
-7.39732e-06
-3.45923e-06
-3.03079e-05
1.32607e-05
-4.82191e-05
-1.80653e-06
8.05183e-06
1.14542e-05
8.05475e-06
1.31137e-05
-8.22464e-06
2.31085e-05
3.04886e-05
-7.38008e-06
-5.7742e-05
9.52292e-06
-4.44522e-07
-9.39293e-06
-8.66917e-06
-2.51255e-06
-4.88477e-06
-1.19055e-05
-2.03902e-06
-6.92379e-06
2.81838e-06
8.63581e-06
1.23413e-05
-4.24007e-06
7.6501e-06
3.81468e-06
1.24505e-05
-2.54693e-06
-6.12223e-06
-9.92701e-06
-1.12209e-05
1.2939e-06
1.1204e-06
8.27317e-07
6.82279e-06
4.05899e-06
-8.15374e-06
-3.75175e-06
-1.4276e-05
-4.75107e-06
-8.50282e-06
5.00846e-07
6.32194e-06
1.29513e-05
1.40717e-05
-1.29458e-05
-1.33012e-06
1.1652e-05
2.41979e-06
2.13473e-06
8.45667e-06
-7.28862e-06
-8.61874e-06
-8.90903e-06
6.48924e-06
)
;

boundaryField
{
    movingWall
    {
        type            calculated;
        value           uniform 0;
    }
    fixedWalls
    {
        type            calculated;
        value           uniform 0;
    }
    frontAndBack
    {
        type            empty;
        value           nonuniform List<scalar> 0();
    }
    defaultFaces
    {
        type            empty;
        value           nonuniform List<scalar> 0();
    }
}


// ************************************************************************* //
