/*--------------------------------*- C++ -*----------------------------------*\
  =========                 |
  \\      /  F ield         | OpenFOAM: The Open Source CFD Toolbox
   \\    /   O peration     | Website:  https://openfoam.org
    \\  /    A nd           | Version:  8
     \\/     M anipulation  |
\*---------------------------------------------------------------------------*/
FoamFile
{
    version     2.0;
    format      ascii;
    class       volScalarField;
    location    "0.01";
    object      p;
}
// * * * * * * * * * * * * * * * * * * * * * * * * * * * * * * * * * * * * * //

dimensions      [0 2 -2 0 0 0 0];

internalField   nonuniform List<scalar> 
424
(
-7.65576e-07
0.0624243
0.0133129
0.0957497
0.0994755
0.247431
0.0809653
0.0258083
0.275777
0.489251
0.446978
0.458032
-0.0138691
-0.169371
0.501684
0.743116
0.49601
0.5008
-0.428396
-0.201284
0.742187
0.99583
0.663982
0.664618
-0.68105
-0.443507
-0.361568
-0.374833
0.981562
1.25172
1.44739
1.51713
0.845656
0.843859
-3.52502
-0.896484
-1.11122
-1.37808
-0.683899
-0.413071
-0.417465
1.21973
1.40559
1.50423
1.41707
1.00734
1.00501
-2.89136
-2.68101
-0.894341
-1.12437
-1.17458
-0.581081
-0.582079
1.43342
1.48026
1.04744
1.044
-2.29888
-1.16321
-0.769014
-0.766896
1.52336
1.67451
-1.08207
-0.643648
-0.960681
-0.960327
1.91833
1.70644
-0.0313663
-0.618051
-1.04673
-1.07086
2.17279
1.93108
1.86789
1.87874
0.716593
-0.0025288
4.37173
2.39574
1.46178
2.10112
2.68574
5.22569
2.85781
2.5996
2.17064
1.92897
1.93371
0.72195
-0.376884
3.94365
2.3887
1.44773
2.07691
2.56767
4.50952
2.62017
2.61153
2.09503
2.09574
-0.166994
-0.402503
2.28662
2.28455
0.384628
-0.167167
2.48385
2.48836
0.966724
0.38412
2.58678
2.61738
1.54228
0.965564
1.7854
1.53703
1.8033
0.12657
0.0350484
0.0476927
0.0617076
0.0826133
0.158921
-0.0328
0.00830596
0.212653
0.300332
0.316358
0.15082
0.168452
0.207695
0.322966
0.294868
0.28893
0.429211
0.432657
0.432193
0.0457834
-0.00204475
0.0582473
0.0330088
-0.027724
-0.0665493
-0.0525412
-0.159559
-0.0837013
-0.184236
-0.0117077
0.0419022
0.0744953
0.119204
0.282836
0.168826
0.357874
0.349078
0.473492
0.50423
0.572205
0.50039
0.588938
-0.0528931
-0.0525683
-0.187091
-0.215508
-0.237368
-0.25898
-0.272705
-0.0574677
-0.272417
-0.0978792
-0.213815
0.634318
0.631384
0.744237
0.777272
0.669806
0.777892
-0.301839
-0.290602
-0.445176
-0.339759
-0.398906
-0.362136
-0.349878
0.8812
0.881893
0.980249
0.958544
1.05367
0.849565
0.943309
-0.550703
-0.679468
-0.503627
-0.558641
-0.419201
-0.516448
1.12701
1.14199
1.205
1.20551
1.27021
1.21891
1.10958
1.18428
1.00649
1.08408
-0.799094
-0.891608
-0.702679
-0.788165
-0.586762
-0.70704
1.3244
1.30133
1.31306
1.35847
1.3842
1.36287
1.36252
1.37855
1.38374
1.47505
1.48404
1.44756
1.19421
1.27633
1.05836
1.19322
1.35558
1.38648
1.4534
-1.26987
-1.65646
-2.50881
-2.11316
-1.02746
-1.12213
-1.23055
-1.02134
-0.884001
-0.954461
-0.773727
-0.883463
-1.1504
-1.26719
1.49394
1.44079
1.45106
1.44547
1.5059
1.44848
1.46768
1.51876
1.55701
1.58212
1.6729
1.33839
1.42511
1.51679
1.48999
1.16679
1.27193
-1.50027
-1.43136
-1.6625
-1.23555
-1.09861
-1.1137
-1.1614
-1.02648
-1.08582
-0.957016
-1.03793
-0.866028
-1.20535
-1.10849
-1.07877
-1.12674
-1.23436
1.5607
1.61298
1.6843
1.5573
1.7255
1.72028
1.74357
1.76924
1.56598
1.7546
1.60858
1.71426
-0.84449
-0.734233
-0.968276
-0.607947
-0.701465
-0.566526
-1.11593
-1.12113
-0.7464
-0.759649
-1.05374
-1.14654
-1.04186
-1.08545
-1.24949
-1.17936
-1.0633
-0.759377
1.7695
1.78177
1.93305
1.85241
1.89514
1.85734
1.85781
-0.407651
-0.41064
0.017777
-0.361481
-0.0654257
-0.40601
-0.351185
-1.40754
-1.3133
-1.09693
-1.22937
-1.17419
-1.54139
-1.49937
-1.20522
2.05669
2.17298
2.00092
2.05576
1.93179
2.01712
0.303647
0.726142
0.0714264
0.316538
-0.162725
0.138991
-1.12197
3.70208
4.04537
2.30625
2.38502
2.18431
2.30389
2.10071
2.19583
1.13171
1.4398
0.795318
1.12395
0.408571
0.782686
2.56654
3.12698
2.5247
2.60754
1.87903
2.06657
2.37169
2.71905
2.9958
2.73886
3.19887
2.63045
2.51533
2.39486
2.47057
2.28617
2.38665
1.89576
1.41679
1.51094
0.96912
1.33815
2.27514
2.91156
2.65638
2.61547
2.16009
2.19132
2.79181
2.66464
2.69251
2.6737
2.57654
2.59315
2.47559
2.58323
1.77004
2.01791
1.54999
1.75125
2.38295
2.63677
2.62949
2.63973
2.1334
2.34184
2.75691
2.62335
2.66854
2.60223
2.67102
1.81063
2.09767
2.61192
2.9585
2.86182
2.52313
2.55775
3.10059
3.04497
2.61614
2.51868
)
;

boundaryField
{
    movingWall
    {
        type            zeroGradient;
    }
    fixedWalls
    {
        type            zeroGradient;
    }
    frontAndBack
    {
        type            empty;
    }
    defaultFaces
    {
        type            empty;
    }
}


// ************************************************************************* //
