/*--------------------------------*- C++ -*----------------------------------*\
  =========                 |
  \\      /  F ield         | OpenFOAM: The Open Source CFD Toolbox
   \\    /   O peration     | Website:  https://openfoam.org
    \\  /    A nd           | Version:  8
     \\/     M anipulation  |
\*---------------------------------------------------------------------------*/
FoamFile
{
    version     2.0;
    format      ascii;
    class       surfaceScalarField;
    location    "0.01";
    object      phi;
}
// * * * * * * * * * * * * * * * * * * * * * * * * * * * * * * * * * * * * * //

dimensions      [0 3 -1 0 0 0 0];

internalField   nonuniform List<scalar> 
1107
(
0.000315711
-0.000641928
0.000632292
-0.000306075
0.000616727
-0.000301016
-2.9094e-05
0.000645821
0.000304584
0.000539314
-0.000105125
-0.000738774
-0.000964648
0.000627304
-9.46585e-05
0.000697856
0.000286229
-5.29892e-05
-1.4787e-05
-3.64657e-05
0.000682287
-3.54416e-05
1.52679e-05
-8.49512e-05
0.000177532
-0.000143161
-6.9813e-05
0.00029894
-0.000860181
-0.00125875
0.000593044
-0.000199298
0.000731944
0.000754324
-9.29338e-05
4.08098e-05
0.000805005
-9.14907e-05
3.78155e-06
-4.15028e-05
-1.10055e-05
0.000723097
0.000840449
2.91661e-05
-6.46102e-05
6.46645e-05
-0.00012708
-8.07459e-05
2.52395e-05
-4.5526e-05
0.000217502
-0.000130707
-0.000213874
0.000271633
-0.000123944
0.00029303
-0.000881578
-0.00149343
0.000527711
-0.00034909
0.000742835
0.0008142
-0.00017519
0.000877789
-0.000155079
5.24286e-06
-2.15062e-05
-5.7626e-06
-2.04676e-05
0.000851013
9.90389e-06
0.000752263
0.000919022
-0.000105844
0.000933297
-3.47426e-05
0.000922238
-2.3513e-05
3.45729e-05
3.33714e-05
-6.8532e-05
-4.55853e-05
1.28487e-05
-2.50034e-05
-7.58168e-05
-0.000123423
0.000305752
-0.000198608
-0.000321018
0.000385691
-0.000203883
0.000298467
-0.000794354
0.000438945
-0.00163391
-0.00053811
0.000716732
0.000854169
-0.000286525
0.000929753
-0.000230663
2.8301e-06
-1.14876e-05
-2.9325e-06
8.20958e-05
0.000891003
-5.08609e-05
0.000839721
-1.22216e-05
0.000762167
0.000977341
-0.000153431
0.000996243
-5.36442e-05
0.000986292
4.45234e-05
0.000952478
0.00011591
-0.000108588
0.000896406
0.000164659
5.26279e-05
-9.51597e-05
-3.3285e-05
2.53495e-05
-1.83069e-05
9.58201e-06
-9.23589e-06
-0.000118317
-0.000203713
-5.69398e-05
-0.000156537
0.000648263
-0.000747429
0.000857872
-0.000427665
0.0009475
-0.000320291
2.03704e-06
-3.94262e-06
-8.9546e-07
0.000845867
-6.3452e-05
0.000812005
-2.31449e-05
0.000749945
0.000798919
-0.000135946
0.000233433
0.00100012
-0.000206055
0.00102243
-7.5956e-05
0.00101536
5.16011e-05
0.000981104
0.000150163
0.000913633
0.00023213
4.17818e-05
-2.8705e-05
-7.00166e-05
2.24979e-05
-1.4001e-05
1.06157e-05
-6.42461e-06
3.9881e-06
-2.60833e-06
0.000808492
-0.000587894
0.000908899
-0.000420698
8.29283e-07
-7.83813e-07
-6.6185e-08
0.000312227
0.000657701
-0.000171009
0.000777933
-6.80126e-05
0.000776641
-2.80875e-05
0.0007268
0.000786099
0.000360968
0.000600225
0.000498101
0.000377766
-0.0012811
0.00150356
0.000964295
-0.00026145
0.00099094
-0.000102601
0.000990988
5.1553e-05
0.000959662
0.00018149
0.000880412
0.000311379
-3.25416e-05
-5.07043e-05
5.45409e-05
-1.77139e-05
-2.88288e-05
-8.45421e-06
-1.56843e-05
-3.17768e-06
-7.88487e-06
-6.37263e-07
-3.32422e-06
-7.03454e-07
0.00100919
0.000325624
-0.000957047
0.000366583
-0.000989984
0.000681893
-7.49695e-05
0.000733528
-2.48997e-05
0.000698713
0.000727418
0.000513962
0.000508793
0.000716726
0.000390588
0.00162177
0.000449478
0.0009503
-4.89729e-05
-8.32883e-05
8.1557e-05
-2.67756e-05
-5.10261e-05
-1.27458e-05
-2.97141e-05
-4.75532e-06
-1.58754e-05
-9.61463e-07
-7.11807e-06
-1.66491e-06
0.000125092
0.000270599
-7.00676e-05
0.000216756
-0.00080722
0.000355775
-0.000663866
0.00067832
-1.97616e-05
0.000673813
0.000367824
0.000206746
-3.41426e-05
-0.000105599
5.64536e-05
-1.89497e-05
-6.62191e-05
-9.201e-06
-3.94627e-05
-3.5333e-06
-2.15431e-05
-7.79173e-07
-9.87219e-06
-2.44408e-06
0.000251966
0.000170657
-0.000152023
0.000183485
-3.67959e-05
0.000130629
-0.000582074
0.000342395
-0.000327941
0.000654051
0.000246878
0.000372911
-8.23615e-06
-0.000110081
1.2718e-05
-4.79912e-06
-6.96561e-05
-2.43584e-06
-4.1826e-05
-1.01335e-06
-2.29655e-05
-2.64567e-07
-1.0621e-05
-2.70865e-06
0.000136035
0.000110811
-7.61897e-05
0.000109675
-7.82132e-05
0.00011131
-1.7477e-05
6.75982e-05
-0.000307277
0.000326111
0.00016158
0.000221333
1.4921e-05
-9.84184e-05
-2.65838e-05
7.76333e-06
-6.24985e-05
3.5419e-06
-3.76045e-05
1.27796e-06
-2.07016e-05
2.23173e-07
-9.56619e-06
-2.48548e-06
0.000104471
6.49288e-05
-5.8589e-05
7.0561e-05
-3.7076e-05
6.35625e-05
-3.04661e-05
5.5003e-05
-4.88183e-06
1.88332e-05
9.73711e-05
0.00016868
-6.57006e-05
5.38878e-05
0.000109184
1.58626e-05
-3.31368e-05
-8.11442e-05
7.64371e-06
-5.42797e-05
3.3465e-06
-3.33073e-05
1.21415e-06
-1.85692e-05
2.37978e-07
-8.59003e-06
-2.2475e-06
3.5376e-05
-3.61478e-05
4.04592e-05
-2.84871e-05
4.0588e-05
-1.41016e-05
3.05543e-05
-6.01735e-06
1.39514e-05
-3.91828e-05
2.75795e-05
6.54912e-05
-2.40894e-05
4.33236e-05
-5.25415e-05
-9.55129e-06
-3.31073e-05
-2.15596e-06
-1.59854e-05
-4.40343e-06
1.75771e-05
-2.1384e-05
2.16688e-05
-1.73574e-05
2.28716e-05
-1.07707e-05
1.93155e-05
-2.86273e-06
7.934e-06
1.23163e-05
-2.15248e-05
3.6788e-05
-5.70944e-06
4.33286e-06
8.62321e-06
-7.24663e-06
-9.84759e-06
4.24085e-05
-4.85463e-05
-1.42511e-05
5.09898e-06
-9.81972e-06
1.70371e-05
7.6037e-06
-1.15514e-05
1.04734e-05
-1.01886e-05
1.20557e-05
-6.54149e-06
1.07647e-05
-2.21999e-06
5.07127e-06
-3.54433e-06
2.66687e-06
-4.83198e-06
-3.11758e-06
2.15436e-06
5.29608e-06
-2.84269e-06
6.97577e-06
-1.36406e-05
9.50753e-06
1.78931e-06
-4.12075e-06
7.43042e-06
2.95058e-06
-5.16658e-06
4.35534e-06
-5.43335e-06
5.68334e-06
-3.81625e-06
5.60481e-06
-1.38158e-06
2.85129e-06
-1.89984e-06
1.75257e-06
-3.39706e-06
-1.80435e-06
1.35364e-06
-1.6042e-06
9.15873e-07
-1.39112e-06
2.55399e-06
5.81287e-06
-2.60901e-06
3.818e-06
-1.87325e-05
1.75235e-05
4.98948e-07
-1.37992e-06
2.67028e-06
9.13299e-07
-2.08347e-06
1.56855e-06
-2.3798e-06
2.27262e-06
-2.02263e-06
2.59014e-06
-8.0158e-07
1.46971e-06
-5.69041e-07
1.44266e-06
-2.77346e-06
-8.88553e-07
8.36762e-07
-8.61696e-07
6.1113e-07
-7.65976e-07
2.90732e-07
-5.45785e-07
4.90767e-07
-6.10941e-07
4.42893e-06
7.04919e-08
-2.87196e-07
7.15652e-07
1.66805e-07
-6.33429e-07
4.0844e-07
-9.23356e-07
7.56723e-07
-8.63902e-07
9.94147e-07
-4.26646e-07
6.68125e-07
7.54865e-08
5.0963e-07
-1.15415e-06
-1.42212e-07
6.96329e-07
-3.76652e-07
3.51717e-07
-3.72882e-07
2.18032e-07
-3.08278e-07
5.3227e-08
-1.20171e-07
1.5138e-07
8.97979e-08
-1.70686e-07
-3.03534e-08
-9.00387e-08
2.49705e-08
-2.4996e-07
1.56713e-07
-3.23347e-07
3.05382e-07
-1.75139e-07
2.41477e-07
1.82986e-07
-1.09e-07
1.50267e-09
1.70079e-07
1.97353e-07
2.14502e-08
2.98224e-07
-1.37936e-07
1.16772e-07
-1.33002e-07
4.27554e-08
-6.69444e-08
3.18422e-07
1.86263e-07
-3.53306e-07
1.92203e-08
4.02195e-08
-4.78357e-08
-1.72331e-08
-1.79071e-08
-7.53411e-08
4.44618e-08
-6.24284e-08
6.63377e-08
1.16236e-07
2.8929e-08
3.78234e-08
1.68756e-07
-1.07668e-07
1.57449e-07
6.13555e-08
5.92094e-08
1.01078e-07
-3.73188e-08
2.10895e-08
-2.41897e-08
3.37622e-07
4.69852e-09
-2.38987e-08
1.1855e-07
8.69375e-08
-2.08916e-08
1.32741e-08
-3.67792e-08
1.63761e-09
-1.98007e-08
-1.10792e-08
3.91046e-09
1.28947e-07
-3.09039e-07
5.17716e-07
-2.602e-07
5.05387e-07
1.55816e-07
4.18813e-08
1.20068e-07
-7.02827e-08
1.08504e-07
1.20614e-08
4.54262e-08
1.83346e-08
-3.1e-09
1.25634e-07
-2.37438e-09
3.08318e-08
3.5213e-08
-2.58571e-08
2.35157e-09
-2.02377e-08
2.07417e-09
-7.16846e-09
-1.51624e-08
-1.68225e-07
-1.19527e-07
1.28473e-07
3.348e-08
7.12228e-08
-3.2999e-08
5.77029e-08
-2.14571e-10
1.52357e-08
3.18038e-08
-3.34625e-09
-1.44281e-09
1.07987e-08
-1.74513e-08
-4.33634e-10
-5.0961e-09
-5.63792e-08
-8.00387e-08
-4.74317e-08
8.59964e-08
1.87091e-08
3.28771e-08
-8.1722e-09
1.50217e-08
-2.91308e-09
-1.87525e-09
-8.16224e-09
1.50979e-09
-5.5302e-09
-5.28622e-08
-3.00869e-08
-1.42964e-08
4.57258e-08
5.86236e-09
6.84895e-09
-9.42475e-09
-6.1175e-10
-4.01931e-09
-3.33019e-08
-6.20844e-09
-1.87192e-09
1.27109e-08
-4.63007e-09
-1.08389e-08
0.000569142
-0.0013635
-0.00106477
0.000280381
-0.000484094
0.000798661
-0.00051828
0.000477643
0.00125898
-0.000781333
0.00105509
-0.000308403
0.00149487
-0.00180328
0.000430105
-0.000317324
-0.00127811
0.000496775
0.000121267
-0.000277805
-0.000362826
4.11196e-05
-0.000111136
-0.000236685
0.00026751
-0.000630336
0.00104352
-0.000776006
0.000525236
-0.000752873
0.00190463
-0.00140785
0.000101348
0.00118083
-0.00107948
0.000863508
0.000275615
0.000850244
-0.00160312
-0.000557606
-5.65953e-05
0.0002013
-0.000257895
-3.53853e-05
-0.000665721
-7.68406e-05
-0.000588881
0.00114194
-0.00121878
0.000365935
-0.00123718
0.00116185
-0.00171946
8.23681e-05
0.000765151
-0.000682783
-0.00104077
0.000620067
-0.00111027
0.000848817
-0.000490201
0.000673594
-0.00191078
-0.00104586
0.000790286
0.00083148
0.00174059
-0.00031793
0.000831892
-0.00115463
0.00105203
-0.000305816
-0.000950305
0.000632376
-0.000638926
-0.00102277
0.00107433
2.92571e-05
-0.00102824
0.000389309
-0.000846745
0.000227582
-0.000176338
0.000100876
-0.000277214
-0.000488005
0.000200534
-0.000688539
-0.00101825
6.96425e-05
-0.00108789
-0.00184113
0.000782502
-0.00182836
-9.9719e-05
-0.000390482
-0.000265135
-4.06805e-05
-0.000655617
-0.000222659
-0.00161847
-0.00205102
-0.000725185
0.00155667
-8.45935e-06
0.000823433
0.000374599
0.00136599
0.00193126
0.00157273
0.000200356
0.000623076
-0.000606328
0.000806684
2.60475e-05
-2.77169e-05
5.69741e-05
-6.83974e-05
-0.000489872
0.00051592
-0.000100563
-0.000356707
0.000256144
-0.000129125
-7.21509e-05
-0.00022076
5.2751e-05
-0.000273511
-0.000635788
-1.85861e-06
-0.000633929
-0.00108975
-0.000342821
-0.000746928
-0.00196129
0.00120636
-0.00127476
0.000550743
-0.00150028
-0.00159787
0.000323113
0.000865707
-0.00236599
-0.00109559
0.000767484
0.00116378
0.00139056
-0.000843255
0.00121617
0.000729477
0.00189326
0.000406286
0.000984275
0.00121297
0.000433124
0.000779846
0.000949044
0.000762709
0.000186335
0.00101885
0.000946702
-0.000651168
-0.000260793
-5.98746e-06
-0.000254806
-0.000639917
-0.000301235
-0.000338682
-0.00104816
-0.000367359
-0.000680804
-0.00146295
0.00186126
-0.00153815
-0.000504727
0.00153381
-0.00218498
-4.33626e-06
0.0010549
-0.00155963
-0.000408043
-0.000478153
0.000699486
0.000738014
-0.0008808
0.00161881
0.00101246
0.00199673
0.00153659
0.000460138
0.00231644
0.00250278
-0.00052528
0.00159078
-0.0010655
0.00271026
-0.000207486
-0.00028139
0.000451037
-0.00085908
-8.62492e-05
-0.000195141
-0.000424931
-0.000107042
-0.000317889
-0.000787846
-0.000336809
0.00138814
0.000202637
-0.00138381
-0.000175822
-0.000528175
0.000730812
-0.000747625
-0.000111456
0.000513087
-0.00068891
-0.000234538
-0.00085515
0.000326975
-0.000244664
0.000413344
0.000454822
2.99058e-05
-0.000442929
0.000413024
-0.000825244
-6.82792e-05
0.000249831
-0.000181552
-0.000511209
-0.000475921
0.000930743
0.00114289
0.00160303
-0.000243158
-0.000582086
-0.00130866
0.000989903
0.000613128
0.000782417
-0.000526241
-0.000228277
0.000307788
-0.000419244
-0.000516337
0.000179528
-0.000208549
-0.000105677
-0.0001226
-0.000423566
-0.000244039
-0.000938982
0.000250073
-0.00020817
-0.000445501
0.00023733
-0.000118526
-0.000386909
-3.23347e-05
0.000621447
-0.000371374
-0.000494661
0.000376135
-8.16371e-05
0.000275162
-2.53309e-05
0.000193525
-0.000168393
0.000143062
2.90708e-05
0.000106662
-0.000135733
-0.000139322
-0.000320874
-0.000174916
-0.000145958
-9.90508e-05
0.000208235
0.000314294
-0.000112683
0.000426977
0.00081806
0.000247716
-0.000422632
-0.000263493
-0.000845579
0.000371215
0.000446845
-0.000458102
-0.000387476
0.000984343
-3.86445e-05
0.000104136
0.00016959
9.21003e-05
-0.000214701
-1.09561e-05
-0.000355009
0.00014646
-0.000387344
-8.24937e-05
-0.000132207
-0.000326532
-0.000180072
0.000354917
2.12175e-05
-0.000592248
0.000220874
-0.000399473
1.21289e-05
-0.000178599
-0.000224195
0.000245413
-0.000255811
3.16157e-05
-6.22859e-05
-0.000180781
0.000118495
-3.77185e-05
-0.00010458
6.68613e-05
2.08217e-06
-2.78731e-07
2.64501e-05
-2.61714e-05
8.34449e-06
-1.33909e-05
3.9841e-05
6.19387e-05
-7.53296e-05
6.40209e-05
-2.53466e-05
-4.9983e-05
-0.000161079
-1.18943e-05
-1.4277e-05
-6.18773e-05
-2.15237e-05
-5.76438e-05
-0.000103436
-0.000203602
-5.6235e-05
-0.000147367
-0.000478867
-0.000103902
0.000273492
0.000323075
0.00076992
-0.000288677
-0.000190189
0.000676154
9.37658e-05
-3.37276e-06
4.01607e-05
0.000100763
1.29984e-05
8.77644e-05
0.000286491
4.32403e-05
-0.000175447
9.30117e-06
-5.88938e-05
-0.000116553
-0.000238966
-0.000226837
-0.000176919
-4.99179e-05
-0.000355518
-0.000110105
0.00014512
-2.66253e-05
-0.000176736
6.66306e-05
4.60058e-05
1.80151e-05
0.000112867
8.62417e-05
3.64289e-05
3.41207e-06
5.44441e-05
1.29196e-05
-2.87617e-05
-3.31156e-05
-0.000132197
-1.22973e-05
-9.22632e-06
-4.54129e-05
-1.40583e-05
9.29904e-07
1.61072e-05
4.10906e-05
-6.03531e-05
-7.18442e-05
-0.00020772
-8.83092e-05
-0.000119411
-0.000278499
0.000224214
6.22761e-05
0.00031798
3.94817e-05
-2.00797e-05
6.11704e-05
6.76847e-05
0.000129961
7.63965e-05
-2.19524e-05
0.000162638
-0.000179351
6.27973e-05
-0.000229269
-1.42511e-05
-4.42893e-06
-1.41862e-06
1.75258e-05
6.0118e-06
-1.48395e-05
-3.05735e-05
-8.66837e-05
-9.54099e-06
-4.51731e-06
-4.01145e-05
-7.91437e-06
-8.28423e-06
2.581e-05
5.28861e-05
-3.46921e-05
-5.19916e-05
-0.000154103
-0.000114621
1.10791e-05
4.18071e-05
0.00014104
2.64184e-05
6.10642e-06
1.97036e-05
-2.28887e-07
2.89917e-06
5.78292e-06
1.18893e-05
-2.26673e-07
3.12584e-06
4.88982e-07
-2.9117e-05
-1.09975e-05
-8.11086e-05
-8.29873e-06
3.84354e-07
-1.92962e-05
-2.38908e-06
7.1092e-06
1.25944e-05
4.89163e-05
5.06075e-05
-1.69119e-06
-7.70259e-05
-4.0827e-06
6.19471e-06
5.69462e-06
1.87891e-05
1.66639e-06
1.45945e-06
7.36102e-06
3.18287e-07
1.77775e-06
-1.72264e-05
-2.06976e-06
-2.13091e-05
-6.44058e-07
-5.10086e-07
-3.03314e-06
-5.10289e-06
1.76324e-05
1.15673e-06
1.59412e-05
1.9194e-05
-3.25274e-06
-2.11514e-06
2.24359e-07
-7.34443e-07
2.25877e-07
6.50751e-06
8.53507e-07
7.66425e-06
1.42444e-06
2.27796e-06
1.79443e-07
-9.13883e-07
-4.92344e-06
-7.03858e-06
8.32643e-06
-6.62187e-07
-5.07371e-06
-1.96487e-06
2.63712e-07
-6.50168e-07
2.25407e-06
1.59189e-06
2.10962e-06
-1.44757e-07
)
;

boundaryField
{
    movingWall
    {
        type            calculated;
        value           uniform 0;
    }
    fixedWalls
    {
        type            calculated;
        value           uniform 0;
    }
    frontAndBack
    {
        type            empty;
        value           nonuniform List<scalar> 0();
    }
    defaultFaces
    {
        type            empty;
        value           nonuniform List<scalar> 0();
    }
}


// ************************************************************************* //
