/*--------------------------------*- C++ -*----------------------------------*\
  =========                 |
  \\      /  F ield         | OpenFOAM: The Open Source CFD Toolbox
   \\    /   O peration     | Website:  https://openfoam.org
    \\  /    A nd           | Version:  8
     \\/     M anipulation  |
\*---------------------------------------------------------------------------*/
FoamFile
{
    version     2.0;
    format      ascii;
    class       volVectorField;
    location    "0.01";
    object      U;
}
// * * * * * * * * * * * * * * * * * * * * * * * * * * * * * * * * * * * * * //

dimensions      [0 1 -1 0 0 0 0];

internalField   nonuniform List<vector> 
424
(
(-0.00269105 -8.62005e-05 6.67635e-26)
(-0.0123747 0.000876428 0)
(-0.0113936 0.00243357 2.11348e-23)
(6.36901e-05 0.00285494 -9.36032e-25)
(-0.039146 0.00435004 -2.55031e-23)
(-0.0193772 0.000764318 -3.35901e-23)
(-0.00262421 0.0119409 2.56555e-24)
(-0.000902244 0.0130082 -1.72202e-25)
(-0.0566771 0.00227195 -3.57595e-23)
(-0.0218478 0.000286242 3.08333e-23)
(-0.0593656 0.0018588 9.01142e-23)
(-0.0206167 0.00036549 0)
(-0.0043877 0.0413672 1.48213e-24)
(-0.000860106 0.0204402 0)
(-0.0618702 0.000553366 3.26864e-23)
(-0.0217594 -4.25275e-05 1.73782e-23)
(-0.049878 0.000592883 0)
(-0.0169129 6.85693e-05 0)
(-0.000335839 0.0228956 0)
(-0.00235031 0.0600409 -2.89709e-23)
(-0.0611601 5.69116e-06 3.4676e-23)
(-0.0217623 -0.000332059 -1.86124e-23)
(-0.0483348 0.000225331 0)
(-0.0168417 5.44602e-05 0)
(1.03641e-05 0.02217 1.32038e-23)
(-0.000301069 0.0646745 2.61438e-23)
(-0.0019193 0.0582541 -3.56499e-23)
(-0.000328592 0.0202206 -3.68465e-23)
(-0.0620907 -0.000403026 5.81671e-23)
(-0.0194181 -0.000756213 0)
(-0.0126696 -0.000872112 -1.29297e-22)
(-0.00281197 0.000102793 0)
(-0.0447746 -4.28919e-06 -1.05131e-22)
(-0.0154829 4.00926e-05 9.83083e-23)
(-0.0221183 0.0477375 6.84571e-23)
(0.00023003 0.0226693 0)
(6.74064e-05 0.0256274 -2.26016e-22)
(0.00340104 0.0606589 2.32837e-22)
(5.8369e-05 0.062242 2.82225e-23)
(-0.000399875 0.0508897 3.92546e-24)
(-1.805e-05 0.0172638 -3.85304e-24)
(-0.0574533 -0.00221193 -1.04345e-22)
(-0.040433 -0.00456865 1.31083e-22)
(-0.0122991 -0.00270439 0)
(7.65708e-05 -0.0030861 -2.96541e-22)
(-0.0419206 -0.00024748 3.47317e-22)
(-0.0139678 -2.83459e-05 0)
(-0.106502 0.150777 -1.89361e-22)
(0.808927 0.0279551 -5.07953e-23)
(-0.000629163 0.0649476 -1.63652e-23)
(-0.00609156 0.0737619 0)
(-0.00563902 0.157789 -3.60982e-24)
(-0.000219119 0.0489773 0)
(-4.23751e-05 0.0171331 0)
(-0.00349252 -0.0131587 5.94891e-23)
(-0.0011287 -0.0143889 2.59487e-22)
(-0.0453868 -0.000529335 0)
(-0.0151796 -0.000124703 0)
(0.403562 0.118203 1.43256e-22)
(0.85854 -0.00380241 -1.2288e-23)
(0.000122246 0.0461948 -9.39005e-23)
(-1.15768e-05 0.0161606 8.90076e-23)
(-0.00563205 -0.0448346 0)
(-0.000929924 -0.022449 0)
(0.541359 0.012102 1.61164e-22)
(0.878173 -0.00219378 0)
(0.000315438 0.043891 -8.09986e-23)
(8.45436e-05 0.0151561 7.45382e-23)
(-0.000319325 -0.0247782 6.00368e-23)
(-0.00263089 -0.0647984 -1.8535e-23)
(0.875992 -0.00129638 -1.33758e-23)
(0.61165 0.00180746 -1.18306e-22)
(-0.00240185 0.0472849 0)
(-0.000249218 0.0183507 0)
(7.48161e-05 -0.0244816 4.71031e-23)
(-0.000408482 -0.069084 1.90317e-23)
(-0.00153036 -0.0556552 -3.90983e-22)
(-0.000272649 -0.0192371 0)
(0.874691 -0.00032022 1.26363e-23)
(0.621998 -0.000670102 -5.15563e-23)
(0.826112 -0.0268563 0)
(0.000325861 -0.0242636 -9.06539e-23)
(0.87717 0.0014102 0)
(0.882353 0.00208524 0)
(0.862931 0.00376753 0)
(-0.0194243 -0.0484937 0)
(0.00361317 -0.065177 -4.76758e-22)
(9.31277e-05 -0.0264804 5.90903e-22)
(0.000270623 -0.0681215 4.34989e-23)
(-0.000460769 -0.0487554 0)
(-2.99103e-05 -0.0165509 0)
(0.625122 -0.000734135 -2.06244e-23)
(-0.11367 0.00172788 -4.14763e-23)
(0.444499 -0.114753 9.64016e-22)
(-0.000428352 -0.069363 -8.87848e-23)
(0.627008 0.00122568 -1.23274e-22)
(0.628988 -0.00115998 2.5629e-22)
(0.5597 -0.0101857 -1.24075e-21)
(-0.109038 -0.150859 -1.79871e-22)
(-0.00691406 -0.168421 6.96278e-22)
(-0.00685681 -0.0762976 -5.65233e-22)
(3.41659e-05 -0.0484181 -3.08253e-23)
(2.77711e-05 -0.0169207 2.98942e-23)
(-0.101432 -1.28004e-05 0)
(-0.0432073 -9.29332e-05 -3.99507e-23)
(0.000335374 -0.0500888 -1.38042e-22)
(5.37724e-05 -0.017567 -1.31247e-22)
(-0.103517 -0.000337185 2.35047e-23)
(-0.0363425 -1.15325e-05 0)
(-4.21682e-05 -0.0491448 9.93641e-23)
(8.64927e-05 -0.0172538 -9.47247e-23)
(-0.0965649 -0.000138716 -2.45654e-22)
(-0.0376333 -0.000115887 -2.22557e-23)
(-0.00315739 -0.0511797 0)
(-0.000283315 -0.0205718 0)
(-0.0892169 0.000370393 1.34307e-22)
(-0.0349119 -6.90059e-05 0)
(-0.100985 -0.00149136 0)
(-0.0314854 5.48192e-06 1.20161e-22)
(-0.0373274 -7.35771e-05 0)
(-0.0646712 0.0136946 2.52485e-24)
(-0.0198034 0.00956862 0)
(-0.0515766 0.0282926 0)
(-0.00977548 0.0206974 -1.45701e-24)
(-0.105306 0.0871337 2.33355e-23)
(-0.127553 0.0604996 4.53299e-22)
(-0.0708664 0.111527 3.79591e-23)
(-0.0880996 0.0957887 -1.02393e-23)
(-0.126054 0.0513713 -7.6295e-22)
(-0.130075 0.0307426 -2.4953e-23)
(-0.112676 0.0235893 -6.84233e-22)
(-0.0985405 0.0232398 -1.89876e-22)
(-0.116525 0.0382955 -6.09083e-22)
(-0.132906 0.0413768 7.96048e-22)
(-0.140001 0.0201826 -5.78027e-22)
(-0.144585 0.0225176 1.04433e-22)
(-0.0908447 0.00546396 1.78779e-22)
(-0.133865 0.00608281 1.19894e-21)
(-0.09101 0.00455389 2.48739e-22)
(-0.11156 0.00235858 3.28524e-22)
(-0.0293214 0.0522464 2.2714e-23)
(-0.0827247 0.0906638 0)
(-0.0570357 0.0540638 -1.88019e-23)
(-0.0808065 0.0729121 0)
(-0.059195 0.111228 5.90363e-23)
(-0.0612278 0.120342 -1.52023e-22)
(-0.0152616 0.0697297 -1.08944e-24)
(-0.0410259 0.134234 2.18704e-22)
(-0.0575894 0.110653 -5.04275e-23)
(-0.0387699 0.129296 2.78677e-22)
(-0.0511918 0.0872176 -7.96732e-23)
(-0.0815216 0.0772208 -2.52125e-23)
(-0.0909966 0.0553285 0)
(-0.0798082 0.0299796 1.18674e-22)
(-0.0196983 0.00199625 -2.83229e-22)
(-0.0551413 0.0116911 3.26765e-22)
(-0.128585 0.00752559 0)
(-0.143109 0.00799334 0)
(-0.151081 0.0020872 -8.3252e-22)
(-0.101848 0.000665574 -1.52503e-21)
(-0.145849 0.00240577 2.75433e-21)
(-0.0848353 0.0013283 6.9352e-22)
(-0.117583 -0.000198903 7.3164e-22)
(-0.0278745 0.104982 -3.49163e-23)
(-0.035632 0.122162 3.40118e-23)
(-0.0278056 0.143186 -2.36257e-22)
(-0.00526496 0.0956353 8.08203e-22)
(-0.0172406 0.146894 1.17703e-22)
(-0.0214005 0.124099 5.10265e-23)
(-0.0123352 0.136589 -2.95963e-22)
(-0.0279358 0.0750748 1.90836e-22)
(-0.0170886 0.109154 -1.12967e-21)
(-0.0119182 0.0543684 0)
(-0.00201558 0.0194766 0)
(-0.136574 -0.000662363 8.62991e-22)
(-0.149464 0.000130845 -2.57259e-21)
(-0.104103 0.000577147 -9.1353e-22)
(-0.14358 0.000157067 2.89431e-21)
(-0.082923 -2.86594e-05 -1.13944e-21)
(-0.118036 -0.000411495 1.42915e-21)
(-0.0048801 0.131818 -7.22797e-22)
(-0.00594596 0.146102 5.25921e-22)
(0.000785206 0.104624 0)
(-0.00411727 0.130155 0)
(-0.00172341 0.15085 -1.05821e-21)
(-0.00332849 0.0864496 7.68249e-22)
(-0.000405552 0.109623 0)
(-0.13654 0.00136956 8.68279e-22)
(-0.148058 0.000680567 2.0428e-22)
(-0.106847 0.000497964 1.25226e-21)
(-0.14339 -0.00182335 -1.91035e-21)
(-0.147788 -0.00306029 -2.01498e-21)
(-0.0798771 -0.000664408 -2.25756e-21)
(-0.11164 -0.000690049 9.82428e-22)
(0.00267145 0.135485 7.73822e-22)
(0.000773592 0.100481 -8.19438e-22)
(-0.000927969 0.145978 2.56626e-21)
(0.00129084 0.149892 -1.98361e-21)
(-0.000689018 0.0872772 0)
(0.000490461 0.11874 0)
(-0.130011 -0.00552731 -1.44066e-21)
(-0.145215 -0.0077629 0)
(-0.144792 -0.0226095 1.76092e-21)
(-0.0924555 -0.00534343 1.0447e-21)
(-0.136207 -0.0287001 -1.96102e-21)
(-0.138761 -0.0268865 -3.24245e-21)
(-0.126369 -0.00617957 1.95957e-21)
(-0.13163 -0.0199094 1.78899e-21)
(-0.0795032 -0.000796628 -2.9466e-22)
(-0.1014 0.000221677 0)
(-7.24564e-06 0.134985 -4.33275e-22)
(-0.00370793 0.108213 0)
(0.000596058 0.144741 0)
(-0.00022394 0.148281 3.31458e-22)
(-2.58541e-05 0.0822513 0)
(0.00149558 0.117369 0)
(-0.121825 -0.05389 0)
(-0.131212 -0.0475802 -2.15545e-21)
(-0.130525 -0.0504325 2.91161e-21)
(-0.11053 -0.0717372 0)
(-0.0638214 -0.0130101 0)
(-0.102011 -0.0223095 -1.20501e-21)
(-0.116669 -0.0283638 -2.2659e-21)
(-0.107032 -0.05525 2.78049e-21)
(-0.117412 -0.0662815 -1.47323e-22)
(-0.0523786 -0.0271125 -6.95745e-22)
(-0.020854 -0.00958467 0)
(-0.0111362 -0.0214181 2.14632e-21)
(-0.113114 -0.0276584 7.42072e-22)
(-0.116459 -0.0468887 -1.84219e-21)
(-0.0730661 -0.00127748 -1.31381e-21)
(-0.0986029 -0.0222369 1.87734e-21)
(-0.0978918 -0.0598107 8.63354e-22)
(-0.100326 -0.0731375 0)
(-0.0867267 -0.0847538 1.57013e-21)
(-0.0340002 0.217948 3.18554e-24)
(-0.136348 0.286098 -2.99345e-21)
(-0.143946 0.21936 3.14017e-21)
(0.113955 0.184108 -2.55631e-21)
(-0.0164486 0.139267 1.44934e-21)
(-0.0190635 0.116926 -1.75493e-21)
(-0.0541213 0.181586 -8.94228e-22)
(-0.0175864 0.147227 -3.10372e-21)
(0.000645023 0.142256 -8.02666e-22)
(-0.00771701 0.145284 3.22975e-21)
(0.00102723 0.0783501 0)
(0.0018759 0.110093 2.9457e-22)
(-0.0712197 0.168636 4.25733e-21)
(-0.116873 0.166484 -1.32623e-21)
(-0.0884549 -0.0977589 4.14051e-21)
(-0.103876 -0.0848786 2.46613e-21)
(-0.102639 -0.0870506 -3.31614e-21)
(-0.0614822 -0.0491791 5.28085e-22)
(-0.0773367 -0.0964322 0)
(-0.0813246 -0.0685671 2.4661e-22)
(-0.0305817 -0.051068 -2.99997e-21)
(-0.0699462 -0.115314 -5.82936e-21)
(-0.0179884 -0.0717782 0)
(-0.0578761 -0.116725 2.04745e-21)
(-0.0411056 -0.130596 0)
(-0.066745 -0.0230241 3.19282e-21)
(-0.0807973 -0.0518444 0)
(-0.0503853 -0.0888175 -4.67594e-21)
(-0.072463 -0.0793398 1.13874e-21)
(-0.0147481 -0.00119327 1.38106e-21)
(-0.0430883 -0.00789937 -5.51415e-21)
(-0.121569 0.223342 -5.36623e-22)
(-0.149074 0.182766 0)
(-0.00370734 0.18672 1.99413e-21)
(-0.161762 0.0932723 -1.30269e-21)
(0.247301 0.053092 9.74219e-22)
(-0.0305011 0.144523 2.02882e-21)
(-0.0558852 0.144226 -2.28841e-21)
(-0.00929876 0.120739 -1.69496e-21)
(-0.0212978 0.121566 2.92273e-21)
(0.000584092 0.0761899 1.36611e-21)
(-0.00659974 0.0965091 -9.02126e-22)
(-0.184604 0.00894355 0)
(-0.127653 0.101078 -1.93339e-21)
(-0.164483 0.0692241 1.07094e-22)
(-0.171836 0.0326787 3.16345e-21)
(-0.0637515 0.108393 -1.24012e-21)
(-0.101362 0.0884897 1.20828e-21)
(-0.0508507 -0.117722 2.24694e-22)
(-0.0510581 -0.130543 5.04715e-22)
(-0.0387298 -0.139327 0)
(-0.0300226 -0.102393 -2.83701e-22)
(-0.00692682 -0.104497 1.89785e-23)
(-0.0235123 -0.143411 -3.57218e-21)
(-0.0253573 -0.126694 1.81891e-21)
(-0.0175011 -0.135984 -2.0154e-21)
(-0.0276993 -0.0777593 3.19836e-21)
(-0.0202107 -0.109149 -2.63235e-21)
(-0.0104296 -0.0514003 0)
(-0.00180158 -0.0181018 0)
(-0.0837162 0.0497355 -4.5978e-22)
(-0.1489 0.0204352 1.66925e-21)
(0.0784528 0.0540002 -6.88454e-22)
(0.351064 0.0163006 1.71539e-21)
(-0.159096 0.0128283 0)
(-0.203315 0.00725588 0)
(-0.0212343 0.0924114 -2.11903e-21)
(-0.042099 0.0873395 0)
(-0.189013 -0.0105571 0)
(-0.187387 -0.00644077 0)
(-0.00723058 0.0703831 0)
(-0.00960841 0.0760151 -9.59911e-22)
(-0.143702 -0.00679927 0)
(-0.142852 0.0180124 -3.20869e-21)
(-0.0552204 0.0433082 0)
(-0.0976582 0.0470607 0)
(-0.113871 0.0230872 2.72274e-21)
(-0.170422 -0.0153228 5.6941e-22)
(-0.0102409 -0.145303 2.49995e-21)
(-0.00956601 -0.133877 0)
(0.000140636 -0.109842 -4.0045e-23)
(-0.00586941 -0.129427 0)
(-0.00292956 -0.149688 0)
(-0.00371721 -0.0850272 -3.47979e-21)
(-0.00220536 -0.108467 3.17356e-21)
(-0.0811596 0.0160344 0)
(0.0908616 0.0115521 -1.42272e-21)
(0.349895 0.00275333 0)
(-0.210804 0.00335856 -4.75736e-22)
(-0.189587 0.00894334 1.8483e-23)
(-0.157781 0.0049843 -2.53837e-22)
(-0.195107 0.00588174 1.32121e-22)
(-0.00858082 0.0185788 5.5219e-21)
(-0.0408563 0.0107873 -1.02987e-21)
(-0.0825065 -0.000893341 -2.13887e-21)
(-0.0946493 -0.0189573 0)
(-0.0970483 -0.0132022 0)
(1.77335e-05 0.00645532 1.74711e-21)
(-0.00160682 0.0150529 -6.57111e-21)
(-0.071755 -0.00741857 0)
(0.00153274 -0.139811 -5.41701e-22)
(0.000331304 -0.109741 3.96866e-23)
(-0.00188113 -0.14427 -4.6037e-21)
(0.00072953 -0.149307 4.28274e-21)
(-0.00125029 -0.0828506 0)
(0.000270089 -0.116538 -5.32354e-22)
(0.0641401 -0.00214271 0)
(0.338198 -0.00152601 0)
(-0.201983 -0.00132346 4.09366e-22)
(-0.130759 -0.00138258 -3.52749e-22)
(-0.164453 0.000264257 3.37122e-22)
(-0.207706 0.00679159 -5.41609e-22)
(-0.0272876 -0.00117404 0)
(0.125202 -0.183393 -5.73307e-21)
(-0.153295 -0.220815 9.7849e-21)
(-0.000198443 -0.138233 1.66738e-22)
(-0.00314386 -0.111579 0)
(0.000885283 -0.143826 3.93898e-21)
(-0.000263988 -0.148417 -2.87087e-21)
(0.000520232 -0.0805378 0)
(0.00199219 -0.120521 -1.02614e-21)
(0.0560949 -0.000808312 -3.79791e-23)
(0.331472 -0.00354526 -2.08161e-21)
(-0.223221 -0.00291385 -2.11426e-21)
(-0.13905 -0.000968486 -6.11823e-22)
(-0.167 0.00161269 5.18621e-22)
(-0.215285 -0.00171269 0)
(0.249408 -0.0494885 -6.94281e-21)
(0.0110363 -0.158746 -6.38785e-21)
(-0.0150748 -0.139859 0)
(-0.0202806 -0.119721 0)
(0.0975708 -0.007678 -3.05288e-21)
(0.358814 -0.0145641 2.59059e-21)
(0.101667 -0.0534167 1.15526e-20)
(-0.060111 -0.183846 0)
(-0.128663 -0.204488 9.15555e-21)
(-0.0388764 -0.231137 1.5947e-21)
(-0.155671 -0.290938 -2.58375e-21)
(-0.073505 -0.162922 -4.89256e-24)
(-0.0155794 -0.146748 -3.8305e-21)
(0.000298762 -0.143103 1.64582e-21)
(-0.0064806 -0.145004 6.06185e-21)
(0.00105291 -0.088277 -3.63561e-21)
(0.000372075 -0.118454 2.3608e-21)
(-0.08435 -0.0134086 2.43531e-21)
(-0.203266 0.00227666 3.68104e-21)
(-0.199683 -0.00622715 -3.3452e-21)
(-0.158116 0.00010223 2.45613e-22)
(-0.196741 1.15079e-06 0)
(-0.0927363 -0.0567646 -3.832e-21)
(-0.168734 -0.154404 -2.61419e-21)
(-0.0497961 -0.14079 -6.36651e-21)
(-0.0297321 -0.141638 7.54041e-22)
(-0.161169 -0.0112201 0)
(-0.14823 -0.0202811 -9.91075e-22)
(-0.149118 -0.150094 -6.71985e-21)
(-0.101274 -0.149453 8.65728e-21)
(-0.0847509 -0.102677 6.36911e-21)
(-0.0592664 -0.109505 0)
(-0.00845386 -0.11535 0)
(-0.0201073 -0.117431 -2.50689e-21)
(-0.00123364 -0.0825327 0)
(-0.00761442 -0.0991894 0)
(-0.213831 0.000693221 2.78938e-21)
(-0.20617 -0.00210072 -5.38384e-21)
(-0.150401 0.00225643 -2.58689e-22)
(-0.188365 -0.00303571 -1.57726e-21)
(-0.181617 -0.0072119 5.13383e-21)
(-0.168698 -0.0547768 -4.43567e-21)
(-0.0231112 -0.0911428 1.50646e-21)
(-0.0416955 -0.0888389 3.61252e-21)
(-0.197449 0.00953593 4.41257e-21)
(-0.178905 0.011641 -1.77917e-22)
(-0.0537418 -0.0436228 -7.9703e-21)
(-0.0900503 -0.0555958 3.84116e-22)
(-0.12583 -0.0427725 1.41212e-21)
(-0.00768722 -0.0689217 0)
(-0.0116718 -0.073714 -2.74904e-21)
(-0.150673 -0.00429812 -2.13223e-21)
(-0.176743 0.0115476 1.50537e-21)
(-0.0997884 0.020773 1.41407e-21)
(-0.0111173 -0.0155165 0)
(-0.0425059 -0.00629061 3.54185e-21)
(-0.11789 0.0199144 1.59526e-22)
(-0.106993 0.00391223 0)
(-0.000181257 -0.00665255 0)
(-0.0029768 -0.0144139 0)
(-0.0686002 0.00820651 -3.70173e-21)
(-0.0250354 0.0013832 2.9134e-21)
)
;

boundaryField
{
    movingWall
    {
        type            fixedValue;
        value           uniform (1 0 0);
    }
    fixedWalls
    {
        type            noSlip;
    }
    frontAndBack
    {
        type            empty;
    }
    defaultFaces
    {
        type            empty;
    }
}


// ************************************************************************* //
