/*--------------------------------*- C++ -*----------------------------------*\
  =========                 |
  \\      /  F ield         | OpenFOAM: The Open Source CFD Toolbox
   \\    /   O peration     | Website:  https://openfoam.org
    \\  /    A nd           | Version:  8
     \\/     M anipulation  |
\*---------------------------------------------------------------------------*/
FoamFile
{
    version     2.0;
    format      ascii;
    class       surfaceScalarField;
    location    "0.065";
    object      phi;
}
// * * * * * * * * * * * * * * * * * * * * * * * * * * * * * * * * * * * * * //

dimensions      [0 3 -1 0 0 0 0];

internalField   nonuniform List<scalar> 
1107
(
0.000315988
-0.000643388
0.000633494
-0.000306094
0.000616968
-0.00030098
-2.96871e-05
0.000646655
0.000304962
0.000538556
-0.000106654
-0.000736864
-0.000968718
0.000630292
-9.76565e-05
0.000701464
0.000286064
-5.36019e-05
-1.49162e-05
-3.72722e-05
0.000683927
-3.30509e-05
1.43466e-05
-8.79499e-05
0.000180752
-0.000148834
-6.49691e-05
0.000300272
-0.000856385
-0.00126768
0.000599238
-0.000207465
0.000740101
0.000760967
-9.67749e-05
4.17073e-05
0.000814909
-9.56502e-05
3.58077e-06
-4.2836e-05
-1.13354e-05
0.000725634
0.000853064
2.99211e-05
-6.80761e-05
6.4473e-05
-0.000126751
-8.6556e-05
2.51488e-05
-4.86257e-05
0.000227395
-0.000140759
-0.000213387
0.000277848
-0.000115421
0.000296553
-0.000875089
-0.00151061
0.000539474
-0.000366496
0.00075827
0.000828765
-0.000185439
0.000899225
-0.00016611
5.21558e-06
-2.29028e-05
-6.1198e-06
-2.22906e-05
0.000865044
1.03112e-05
0.000755555
0.000946166
-0.000115017
0.000963464
-3.95886e-05
0.000951846
-2.38984e-05
3.55158e-05
3.54042e-05
-7.27548e-05
-4.92054e-05
1.3622e-05
-2.68435e-05
-8.24007e-05
-0.000131114
0.000322167
-0.000215174
-0.00032038
0.000397172
-0.000190426
0.000306687
-0.000784605
0.000459872
-0.00166379
-0.000570353
0.00074333
0.000880862
-0.000308032
0.000968436
-0.000253684
2.99797e-06
-1.22788e-05
-3.12184e-06
8.81578e-05
0.00091689
-5.32014e-05
0.000853465
-1.23194e-05
0.000765867
0.0010261
-0.000172678
0.00105046
-6.39514e-05
0.00103962
4.63524e-05
0.000999414
0.000128368
-0.000118503
0.000932812
0.000185105
5.74529e-05
-0.000104206
-3.56479e-05
2.76048e-05
-1.93573e-05
1.04141e-05
-9.65278e-06
-0.000129771
-0.000216517
-6.19177e-05
-0.000172059
0.000691199
-0.00080168
0.0009023
-0.000467002
0.00101089
-0.000362273
2.2082e-06
-4.07284e-06
-9.13633e-07
0.000865645
-6.72573e-05
0.000823934
-2.36706e-05
0.000753547
0.000822848
-0.000147395
0.000257359
0.00107957
-0.000241355
0.00111066
-9.50448e-05
0.00110234
5.46673e-05
0.00105824
0.000172467
0.000974481
0.000268869
4.56516e-05
-3.06069e-05
-7.69624e-05
2.44415e-05
-1.44378e-05
1.14681e-05
-6.38392e-06
4.27941e-06
-2.46406e-06
0.000877228
-0.000653031
0.00100524
-0.00049029
8.8258e-07
-6.76014e-07
-3.10524e-08
0.000334131
0.000670011
-0.000181295
0.000790604
-7.23544e-05
0.000785612
-2.89346e-05
0.000729876
0.000827221
0.000404619
0.00062267
0.000538683
0.000388292
-0.00129506
0.00152944
0.00108443
-0.00032054
0.00112429
-0.000134902
0.0011231
5.58568e-05
0.0010777
0.000217866
0.000975178
0.00037139
-3.58716e-05
-5.57977e-05
6.10624e-05
-1.92682e-05
-3.10412e-05
-9.0924e-06
-1.65598e-05
-3.37994e-06
-8.17652e-06
-6.70607e-07
-3.38534e-06
-7.01658e-07
0.000988013
0.000345398
-0.000945119
0.000371508
-0.000996556
0.000688047
-7.87383e-05
0.000739099
-2.5842e-05
0.000700942
0.000793448
0.000586349
0.000547545
0.000784586
0.000411884
0.0016651
0.000483342
0.000916556
-5.78816e-05
-9.54245e-05
9.75083e-05
-3.13307e-05
-5.7592e-05
-1.47862e-05
-3.31042e-05
-5.47329e-06
-1.74895e-05
-1.09569e-06
-7.76293e-06
-1.79735e-06
0.000101469
0.000300643
-5.67145e-05
0.00022776
-0.000801371
0.000357807
-0.000666316
0.000680877
-2.05158e-05
0.0006751
0.000415871
0.00016894
-4.46202e-05
-0.000125336
7.45319e-05
-2.4525e-05
-7.76873e-05
-1.18001e-05
-4.58291e-05
-4.48877e-06
-2.48008e-05
-9.73111e-07
-1.12786e-05
-2.77046e-06
0.00024649
0.000202944
-0.00014879
0.000201322
-3.02762e-05
0.000136228
-0.000579792
0.000342994
-0.000328433
0.000654584
0.000297692
0.000364669
-1.47543e-05
-0.000134207
2.36247e-05
-8.36111e-06
-8.40805e-05
-4.13786e-06
-5.00523e-05
-1.65984e-06
-2.72788e-05
-4.04994e-07
-1.25334e-05
-3.17545e-06
0.000150021
0.00013647
-8.35482e-05
0.000129081
-7.65496e-05
0.000120983
-1.50306e-05
7.00064e-05
-0.000306804
0.000326151
0.000201891
0.000245823
1.39985e-05
-0.000122551
-2.56544e-05
7.11351e-06
-7.71955e-05
3.16984e-06
-4.61086e-05
1.11836e-06
-2.52274e-05
1.79688e-07
-1.15948e-05
-2.99576e-06
0.000129924
7.88983e-05
-7.23516e-05
8.59773e-05
-4.04443e-05
7.41894e-05
-2.97563e-05
5.93473e-05
-4.37153e-06
1.9347e-05
0.000119969
0.000211845
-8.92701e-05
5.99841e-05
0.000149255
1.62223e-05
-3.57628e-05
-0.00010301
7.57832e-06
-6.85516e-05
3.23958e-06
-4.17699e-05
1.169e-06
-2.31568e-05
2.25078e-07
-1.06509e-05
-2.77068e-06
3.84982e-05
-4.887e-05
4.86257e-05
-3.5e-05
4.9052e-05
-1.53068e-05
3.54252e-05
-5.83425e-06
1.49755e-05
-5.22912e-05
2.4002e-05
8.82733e-05
-3.18818e-05
5.76998e-05
-6.75879e-05
-1.25569e-05
-4.24817e-05
-2.815e-06
-2.03927e-05
-5.58568e-06
1.45168e-05
-2.83099e-05
2.31282e-05
-2.33724e-05
2.72425e-05
-1.31906e-05
2.31996e-05
-3.08122e-06
9.14125e-06
4.9343e-06
-2.58319e-05
4.48996e-05
-2.07395e-06
7.06758e-06
7.25123e-06
-1.22449e-05
-1.29772e-05
5.60298e-05
-6.34453e-05
-1.85629e-05
-1.9272e-06
-8.22627e-06
1.50878e-05
2.33347e-06
-1.36486e-05
8.21722e-06
-1.3399e-05
1.26525e-05
-8.78241e-06
1.27247e-05
-2.71569e-06
6.06003e-06
1.56503e-06
4.37946e-06
-8.01843e-06
-4.97907e-07
3.46807e-06
4.09741e-06
-1.88803e-06
8.47641e-06
-1.68534e-05
1.0265e-05
-3.10057e-06
-3.36458e-07
1.50983e-06
-1.79134e-06
-4.10147e-06
8.98307e-07
-6.32964e-06
4.2443e-06
-4.99077e-06
5.79295e-06
-1.85062e-06
3.34434e-06
3.50702e-06
1.70507e-06
-3.64707e-06
1.67648e-06
2.20507e-06
1.18075e-07
1.46197e-06
-7.52825e-07
3.04704e-06
6.18221e-06
-2.68245e-06
4.81271e-06
-2.38844e-05
2.17541e-05
-2.17309e-06
2.17004e-06
-3.09752e-06
-2.23639e-06
1.08581e-07
-1.41576e-06
-1.7874e-06
2.37103e-07
-2.32245e-06
1.84466e-06
-1.04248e-06
1.49371e-06
3.84459e-06
-3.39224e-07
1.65368e-09
2.66114e-06
7.20399e-07
1.33816e-06
9.84987e-07
2.42359e-07
4.66785e-07
-2.00731e-07
5.65311e-07
-5.82895e-07
5.3956e-06
-1.21343e-06
1.74006e-06
-2.69972e-06
-1.40436e-06
1.33801e-06
-1.48e-06
1.7281e-07
-9.39242e-07
-6.1106e-07
4.04215e-09
-4.81833e-07
4.51227e-07
2.70507e-06
-2.27532e-06
3.41483e-06
2.6554e-06
-3.33496e-07
1.79961e-06
2.58944e-07
8.8295e-07
3.44395e-07
1.8275e-07
8.33023e-08
-1.7587e-08
-1.68574e-06
-9.50964e-07
1.42327e-06
-6.60533e-07
9.9623e-07
-8.41277e-07
6.99293e-07
-8.72616e-07
1.06184e-07
-4.96035e-07
-1.10982e-07
-3.06069e-08
1.50186e-06
-2.03355e-06
3.23676e-06
1.72501e-06
-1.34494e-06
1.68298e-06
-2.16864e-07
1.07462e-06
6.72777e-08
4.6214e-07
6.50032e-08
6.57144e-08
-2.46829e-06
-1.39485e-06
2.17739e-06
-1.04551e-06
-5.65985e-07
-3.36653e-07
4.91606e-07
-4.54708e-07
2.81384e-07
-4.22952e-07
3.31008e-08
-1.41587e-07
2.15391e-06
1.27597e-06
-1.92802e-06
8.35238e-07
-1.14378e-06
1.01655e-06
-6.78508e-07
9.58044e-07
-1.00294e-07
5.23832e-07
5.58333e-09
1.30716e-07
-2.93243e-06
-7.52319e-07
1.21646e-06
-1.63206e-06
-8.08304e-07
-6.09609e-07
-2.9303e-07
-1.52502e-07
1.894e-07
-2.0377e-07
6.22015e-08
-1.08485e-07
-2.83153e-06
1.90792e-07
-2.91687e-07
1.29439e-06
-1.97202e-06
1.35059e-06
7.60606e-07
4.31623e-07
-5.58862e-07
5.43708e-07
-2.64173e-07
4.49947e-07
-2.641e-08
1.36298e-07
-1.9573e-06
-4.27087e-07
-1.01254e-06
-4.05372e-07
-3.25226e-07
-1.20307e-07
-5.35164e-08
3.91464e-08
-4.6283e-08
-1.88196e-06
1.15443e-07
7.63021e-07
7.97946e-07
3.94283e-07
1.98898e-07
-2.14054e-07
2.41802e-07
-5.60286e-08
1.09886e-07
-1.2273e-06
-2.12333e-07
-5.71099e-07
-1.59498e-07
-1.45977e-07
-2.78465e-08
-7.13671e-09
-1.17297e-06
6.11124e-08
3.88e-07
4.3129e-07
1.6189e-07
7.15401e-08
-4.3793e-08
5.38564e-08
-6.99101e-07
-8.43322e-08
-2.69713e-07
-3.57627e-08
-3.4983e-08
-6.64483e-07
2.6494e-08
1.54806e-07
1.95826e-07
3.76036e-08
1.00628e-08
-3.34313e-07
-1.97321e-08
-7.07462e-08
-3.15138e-07
7.31855e-09
3.54938e-08
4.7666e-08
-9.04788e-08
-8.31603e-08
0.000597179
-0.00138178
-0.00106661
0.000323402
-0.000539918
0.000860693
-0.000537291
0.000540312
0.00130424
-0.000763926
0.00111381
-0.000267971
0.00157007
-0.00183804
0.000503455
-0.000298225
-0.0013949
0.000630976
0.000139435
-0.000311494
-0.000400483
4.44274e-05
-0.00012139
-0.000267067
0.000331846
-0.000732329
0.00117715
-0.000845309
0.000639864
-0.000755038
0.00207403
-0.00144306
0.000235996
0.00130966
-0.00107366
0.00101143
0.000358403
0.00101923
-0.00177427
-0.000423824
-6.03273e-05
0.000230336
-0.000290663
-3.67311e-05
-0.00076906
-6.73894e-05
-0.000701671
0.0013739
-0.00144129
0.000528594
-0.00124568
0.00142809
-0.00185191
0.000354425
0.000887002
-0.000532577
-0.00124541
0.000755115
-0.0013791
0.00105856
-0.000623987
0.000989987
-0.00223566
-0.000861925
0.000861421
0.000803676
0.00177798
-0.000412895
0.000999244
-0.00149396
0.00135906
-0.000435399
-0.00116223
0.000749339
-0.000790845
-0.00132512
0.00138098
3.39346e-05
-0.00129342
0.000502575
-0.00107555
0.000305426
-0.000193155
0.000132834
-0.000325988
-0.000568837
0.00028122
-0.000850057
-0.00116007
0.00020261
-0.00136268
-0.00203305
0.00114347
-0.0020054
-0.000610897
-1.30899e-05
-0.000667099
0.0002317
-0.000680189
-2.46855e-05
-0.00200837
-0.00203008
-0.000901606
0.00170528
-0.00011702
0.000882224
0.000281969
0.00149601
0.00198725
0.00166495
-2.65736e-05
0.000908798
-0.00101669
0.000990112
-0.000267346
-0.000586734
0.000620668
-0.000355033
-0.000971183
0.000703837
-0.000468608
-0.000797738
0.00032913
-0.000492311
0.000128357
-0.000251456
8.11977e-05
-0.000332654
-0.000768859
3.49345e-05
-0.000803793
-0.00132775
-0.000350964
-0.000976784
-0.00235933
0.000884915
-0.00123995
0.000204726
-0.00182536
-0.00142609
0.000186143
0.000920368
-0.00274573
-0.00143896
0.000538923
0.00144833
0.00144772
-0.00100903
0.0013737
0.000655921
0.00210425
9.90648e-05
0.00134866
0.00108918
4.4341e-05
0.00104484
0.000748178
0.000218241
0.000529937
0.000547371
0.000675728
-0.000750364
-0.00030903
1.00288e-05
-0.000319058
-0.000793765
-0.000349447
-0.000444317
-0.00132623
-0.000424838
-0.000901394
-0.0018638
0.00201403
-0.00182788
-0.000731699
0.00173285
-0.00248322
-9.50286e-05
0.00128854
-0.00202024
-0.000575263
-0.000617017
0.00086284
0.000756678
-0.0012128
0.00196948
0.000891452
0.00224011
0.00140645
0.000833661
0.00245128
0.00298122
-0.000632609
0.00205909
-0.00142648
0.00311583
-0.000134608
-0.000344713
0.000565009
-0.00114027
-9.40297e-05
-0.000250683
-0.000538347
-0.000119158
-0.000419189
-0.00102055
-0.000455543
0.00182414
0.000234951
-0.00172911
-0.000291126
-0.000733159
0.00096811
-0.000977146
-0.000163126
0.00064798
-0.000939106
-0.000329166
-0.00117867
0.000445515
-0.000325236
0.000537081
0.000537604
2.79633e-05
-0.0006056
0.000577636
-0.00115071
-0.00012276
0.000349146
-0.000226387
-0.000728359
-0.000702779
0.00124038
0.0012667
0.00210036
-0.000341468
-0.000809244
-0.00176795
0.00121696
0.000883401
0.00108235
-0.000685602
-0.000286446
0.000394832
-0.000557958
-0.000676652
0.000221109
-0.00028182
-0.000125809
-0.000160637
-0.000544998
-0.000323889
-0.00126077
0.000321662
-0.000292658
-0.000608497
0.000315839
-0.000162982
-0.000502974
-5.49843e-05
0.00083214
-0.000510478
-0.000676506
0.000513524
-9.88695e-05
0.000368963
-1.98165e-05
0.000270093
-0.000219544
0.000199727
1.7192e-05
0.000144623
-0.000161815
-0.000202352
-0.000428738
-0.000259204
-0.000169535
-0.000112949
0.000262204
0.000424132
-0.000149164
0.000573296
0.00109122
0.000317224
-0.000576427
-0.000411135
-0.00122038
0.000468824
0.000622395
-0.000666623
-0.000553756
0.00135223
-2.15482e-05
0.000109821
0.000240656
0.000113862
-0.000274499
-1.08518e-05
-0.000466253
0.000184433
-0.000521237
-0.000100942
-0.000173557
-0.000424831
-0.000240397
0.000483656
2.98675e-05
-0.000799495
0.000289018
-0.000531899
1.06617e-05
-0.000242882
-0.000300812
0.00033068
-0.000346444
4.56318e-05
-7.63508e-05
-0.000238728
0.000162377
-3.90003e-05
-0.000131989
9.29885e-05
1.26339e-05
5.50471e-06
2.43716e-05
-2.98763e-05
1.27559e-05
-2.40425e-05
4.84142e-05
6.97852e-05
-9.38278e-05
8.24191e-05
-4.69228e-05
-4.6905e-05
-0.000208737
-2.42497e-05
-5.62661e-06
-7.11547e-05
-1.78715e-05
-0.000102264
-0.000106474
-0.000271798
-0.000104162
-0.000167636
-0.000680589
-9.42147e-05
0.000334871
0.000479081
0.00110148
-0.000443554
-0.000237036
0.00099731
0.000104166
1.8706e-05
2.61936e-05
0.000128527
4.65647e-05
8.19628e-05
0.000381436
5.40398e-05
-0.000227597
1.35481e-05
-7.32786e-05
-0.000154319
-0.000313676
-0.000303014
-0.000234889
-6.8125e-05
-0.000477771
-0.000147091
0.00019194
-2.95633e-05
-0.000237572
9.04808e-05
5.34586e-05
2.89605e-05
0.000146447
0.000116884
4.0977e-05
7.43717e-06
6.99375e-05
1.77021e-05
-4.91301e-05
-2.20246e-05
-0.000155604
-2.30828e-05
5.21134e-06
-4.51074e-05
-2.8071e-06
1.52235e-05
-1.35777e-07
4.14171e-05
-0.00010325
-5.23538e-05
-0.000270886
-0.000148646
-0.00012224
-0.000385682
0.000342112
3.93234e-05
0.000446278
6.05967e-05
9.42863e-06
3.19885e-05
9.13915e-05
0.000130715
9.70872e-05
-2.71497e-05
0.000213971
-0.000236327
8.20082e-05
-0.000304452
-1.85629e-05
-5.39561e-06
-8.05618e-06
7.92039e-06
-6.54635e-06
-4.07696e-05
-4.33783e-06
-9.31234e-05
-1.27111e-05
9.904e-06
-1.70489e-05
6.25692e-06
1.14383e-05
-3.51786e-06
4.34268e-05
-7.52326e-05
-1.78908e-05
-0.000197473
-0.000136876
3.34477e-05
9.97908e-06
0.000164163
2.72866e-05
-8.40179e-06
4.88393e-06
5.08279e-06
-8.18031e-06
-1.46356e-06
-9.86536e-06
-7.66561e-07
-7.41376e-06
-3.46629e-06
-3.03424e-05
1.32935e-05
-4.82332e-05
-1.81023e-06
8.06715e-06
1.14833e-05
8.06878e-06
1.31351e-05
-8.25119e-06
2.31142e-05
3.04995e-05
-7.38532e-06
-5.77861e-05
9.55294e-06
-4.4841e-07
-9.41695e-06
-8.69961e-06
-2.51781e-06
-4.89595e-06
-1.19348e-05
-2.04301e-06
-6.93896e-06
2.82714e-06
8.65616e-06
1.23801e-05
-4.24879e-06
7.66361e-06
3.81999e-06
1.24761e-05
-2.56551e-06
-6.1341e-06
-9.95082e-06
-1.12524e-05
1.30158e-06
1.12767e-06
8.29172e-07
6.83443e-06
4.06592e-06
-8.17489e-06
-3.75987e-06
-1.4309e-05
-4.76157e-06
-8.52145e-06
4.99834e-07
6.3346e-06
1.2976e-05
1.41036e-05
-1.29777e-05
-1.33133e-06
1.16761e-05
2.42756e-06
2.13789e-06
8.47249e-06
-7.30499e-06
-8.63632e-06
-8.92802e-06
6.50046e-06
)
;

boundaryField
{
    movingWall
    {
        type            calculated;
        value           uniform 0;
    }
    fixedWalls
    {
        type            calculated;
        value           uniform 0;
    }
    frontAndBack
    {
        type            empty;
        value           nonuniform List<scalar> 0();
    }
    defaultFaces
    {
        type            empty;
        value           nonuniform List<scalar> 0();
    }
}


// ************************************************************************* //
