/*--------------------------------*- C++ -*----------------------------------*\
  =========                 |
  \\      /  F ield         | OpenFOAM: The Open Source CFD Toolbox
   \\    /   O peration     | Website:  https://openfoam.org
    \\  /    A nd           | Version:  8
     \\/     M anipulation  |
\*---------------------------------------------------------------------------*/
FoamFile
{
    version     2.0;
    format      ascii;
    class       volVectorField;
    location    "0.065";
    object      U;
}
// * * * * * * * * * * * * * * * * * * * * * * * * * * * * * * * * * * * * * //

dimensions      [0 1 -1 0 0 0 0];

internalField   nonuniform List<vector> 
424
(
(-0.00293612 -0.000189942 6.80798e-26)
(-0.0146512 0.000961547 0)
(-0.0131017 0.00276773 2.04586e-23)
(0.000179563 0.00315097 -1.16698e-24)
(-0.0473521 0.00514716 -2.47644e-23)
(-0.0230443 0.00084451 -3.3878e-23)
(-0.00299428 0.0138296 3.2343e-24)
(-0.000995328 0.0155051 -7.93499e-25)
(-0.0687339 0.00259462 -3.61309e-23)
(-0.0257646 0.000296799 3.10975e-23)
(-0.0703217 0.00228272 9.63756e-23)
(-0.0240375 0.000465947 0)
(-0.00519747 0.0503224 1.16774e-24)
(-0.000963613 0.0244872 0)
(-0.074438 0.000564807 3.30259e-23)
(-0.0255806 -4.07934e-05 1.75109e-23)
(-0.0590476 0.000689184 0)
(-0.0196477 7.80981e-05 0)
(-0.000341379 0.0271126 0)
(-0.00267681 0.0732601 -2.78442e-23)
(-0.0734004 4.81076e-05 3.49544e-23)
(-0.0258201 -0.00033861 -1.87545e-23)
(-0.0573184 0.000236497 0)
(-0.019637 5.60102e-05 0)
(1.31923e-05 0.0260429 1.30697e-23)
(-0.000172643 0.0781304 2.5127e-23)
(-0.00233354 0.0684495 -3.74642e-23)
(-0.000418189 0.0233097 -3.89035e-23)
(-0.0750817 -0.000327209 5.8874e-23)
(-0.0232403 -0.000847977 0)
(-0.0150328 -0.000969384 -1.31697e-22)
(-0.00303876 0.000215675 0)
(-0.0530505 -1.92047e-05 -1.05688e-22)
(-0.0180547 3.82501e-05 9.88296e-23)
(-0.0222841 0.0479302 6.83823e-23)
(0.000239867 0.0267994 0)
(0.000145852 0.0295871 -2.27069e-22)
(0.00335077 0.0631446 2.33922e-22)
(8.24642e-05 0.0746615 2.79498e-23)
(-0.000419347 0.0601124 3.9227e-24)
(-6.77882e-06 0.0199979 -3.85036e-24)
(-0.0699925 -0.00256848 -1.05445e-22)
(-0.0489896 -0.00549381 1.33517e-22)
(-0.0141023 -0.0031014 0)
(0.000224017 -0.00336408 -2.95519e-22)
(-0.0494725 -0.000265426 3.46999e-22)
(-0.0162221 -3.37408e-05 0)
(-0.106049 0.152677 -1.89065e-22)
(0.809203 0.0278417 -5.01859e-23)
(-0.000696177 0.0781736 -1.62203e-23)
(-0.00573097 0.0866538 0)
(-0.00507375 0.166847 -3.61595e-24)
(-0.000244486 0.0579423 0)
(-4.43889e-05 0.0199172 0)
(-0.00400031 -0.0151974 5.94383e-23)
(-0.00125639 -0.0170683 2.58428e-22)
(-0.0531139 -0.000629275 0)
(-0.0174751 -0.000155187 0)
(0.405638 0.118729 1.41483e-22)
(0.861376 -0.0037885 -1.19169e-23)
(0.000144674 0.0544614 -9.27312e-23)
(-8.89572e-06 0.0187222 8.78991e-23)
(-0.00671203 -0.0544242 0)
(-0.00104166 -0.0268084 0)
(0.551436 0.0129206 1.56437e-22)
(0.882729 -0.00213944 0)
(0.000408069 0.0516073 -7.9751e-23)
(9.87623e-05 0.0174746 7.33898e-23)
(-0.00033511 -0.0292952 6.02644e-23)
(-0.00298269 -0.0790247 -1.8595e-23)
(0.880717 -0.00128593 -1.38273e-23)
(0.626372 0.00206125 -1.15917e-22)
(-0.00228608 0.0558769 0)
(-0.000204692 0.0209843 0)
(7.71778e-05 -0.0288855 4.72763e-23)
(-0.000366272 -0.0834821 1.91047e-23)
(-0.00189926 -0.0658979 -3.97206e-22)
(-0.000343507 -0.0224356 0)
(0.879095 -0.000317035 1.3063e-23)
(0.637 -0.000768003 -4.91222e-23)
(0.826678 -0.0267488 0)
(0.00033816 -0.0288237 -9.09957e-23)
(0.881772 0.0014074 0)
(0.88671 0.00204226 0)
(0.865839 0.00377292 0)
(-0.019522 -0.0491255 0)
(0.00355484 -0.0683072 -4.80775e-22)
(0.000174762 -0.0308322 5.95669e-22)
(0.000290621 -0.082172 4.36574e-23)
(-0.000559799 -0.057724 0)
(-3.6903e-05 -0.0192438 0)
(0.639152 -0.000725834 -2.08441e-23)
(-0.104739 0.00186891 -4.20518e-23)
(0.447584 -0.115196 9.64675e-22)
(-0.000517971 -0.0839536 -8.91266e-23)
(0.641636 0.00131799 -1.2372e-22)
(0.64316 -0.00139833 2.5737e-22)
(0.570042 -0.0108388 -1.24184e-21)
(-0.108401 -0.154018 -1.80905e-22)
(-0.0064486 -0.179394 7.01048e-22)
(-0.00653537 -0.0905077 -5.69199e-22)
(5.53303e-05 -0.0573262 -3.09733e-23)
(3.52091e-05 -0.019692 3.00377e-23)
(-0.0932086 5.79339e-05 0)
(-0.0405085 -4.34405e-05 -4.09736e-23)
(0.000387589 -0.0594232 -1.38401e-22)
(6.0895e-05 -0.0204899 -1.31588e-22)
(-0.0956139 -0.000318161 2.4023e-23)
(-0.0338648 6.27114e-06 0)
(-6.39911e-05 -0.0579773 9.95369e-23)
(8.55353e-05 -0.0199452 -9.489e-23)
(-0.0893483 -0.000141655 -2.48826e-22)
(-0.0351841 -0.000111246 -2.27465e-23)
(-0.00299852 -0.0605803 0)
(-0.000220459 -0.0234969 0)
(-0.0824099 0.000297746 1.35985e-22)
(-0.0326831 -6.71772e-05 0)
(-0.0935505 -0.00161884 0)
(-0.0294525 -9.46136e-06 1.2164e-22)
(-0.0350909 -0.000114685 0)
(-0.0797267 0.0171027 2.51288e-24)
(-0.0236547 0.0118473 0)
(-0.0636764 0.0352342 0)
(-0.0121539 0.024877 -1.84911e-24)
(-0.129967 0.107075 2.70454e-23)
(-0.157656 0.0741176 4.7712e-22)
(-0.0864133 0.136097 3.60186e-23)
(-0.10747 0.116582 -1.33044e-23)
(-0.154478 0.0625064 -8.0288e-22)
(-0.15925 0.0373107 -2.63912e-23)
(-0.136491 0.0285369 -7.20583e-22)
(-0.122893 0.0288289 -1.9255e-22)
(-0.146435 0.0477362 -6.42742e-22)
(-0.16618 0.0511742 8.3908e-22)
(-0.173052 0.0243187 -6.00127e-22)
(-0.180477 0.0268203 1.08105e-22)
(-0.112007 0.00669819 1.813e-22)
(-0.165199 0.00739627 1.24482e-21)
(-0.109425 0.00549277 2.62638e-22)
(-0.136137 0.00295617 3.4012e-22)
(-0.0367924 0.0645024 2.98963e-23)
(-0.103689 0.113227 0)
(-0.071819 0.068082 -2.47473e-23)
(-0.101895 0.0915877 0)
(-0.0735639 0.138985 5.30045e-23)
(-0.0750807 0.148137 -1.36497e-22)
(-0.019335 0.0863807 -2.97156e-25)
(-0.0501153 0.165069 2.19498e-22)
(-0.0697546 0.133911 -4.78462e-23)
(-0.0472365 0.157518 2.86959e-22)
(-0.0615869 0.103854 -5.76649e-23)
(-0.0975181 0.092253 -2.7734e-23)
(-0.108758 0.066209 0)
(-0.0950838 0.0359785 1.2242e-22)
(-0.0232874 0.00244729 -2.99273e-22)
(-0.0654491 0.0141513 3.45273e-22)
(-0.160678 0.00870797 0)
(-0.179695 0.00904264 0)
(-0.188149 0.00221186 -8.63619e-22)
(-0.124775 0.000722817 -1.54642e-21)
(-0.181802 0.00212992 2.80045e-21)
(-0.102242 0.00153793 7.08777e-22)
(-0.144508 -0.000259778 7.39596e-22)
(-0.0349199 0.131596 -2.11331e-23)
(-0.0443178 0.153541 2.05854e-23)
(-0.033928 0.178046 -2.3469e-22)
(-0.00640106 0.118407 7.74676e-22)
(-0.0204731 0.182816 1.15942e-22)
(-0.0260368 0.15075 4.82135e-23)
(-0.014784 0.168117 -3.00198e-22)
(-0.0335754 0.0890427 1.67363e-22)
(-0.020627 0.131568 -1.1726e-21)
(-0.0144264 0.0642255 0)
(-0.00246968 0.0228889 0)
(-0.170565 -0.000968452 8.7541e-22)
(-0.187693 -0.000297597 -2.61179e-21)
(-0.127493 0.000711288 -9.19975e-22)
(-0.178969 0.000117991 2.91443e-21)
(-0.10009 -4.62355e-05 -1.15725e-21)
(-0.145367 -0.000447471 1.43859e-21)
(-0.00533153 0.164856 -6.92801e-22)
(-0.00649956 0.183306 5.23062e-22)
(0.00121419 0.128613 0)
(-0.00490245 0.160067 0)
(-0.00167916 0.187749 -1.05472e-21)
(-0.00396831 0.103311 8.01916e-22)
(-0.000375948 0.133318 0)
(-0.170368 0.00217793 8.74402e-22)
(-0.185654 0.00138075 1.9712e-22)
(-0.131543 0.000716704 1.261e-21)
(-0.178093 -0.0015562 -1.91413e-21)
(-0.183739 -0.00332098 -2.01379e-21)
(-0.0963117 -0.000686799 -2.26909e-21)
(-0.136431 -0.000602657 9.8481e-22)
(0.00381264 0.168843 7.66846e-22)
(0.00086441 0.12281 -8.1201e-22)
(-0.000312949 0.181895 2.5593e-21)
(0.00247977 0.187928 -1.97769e-21)
(-0.000652059 0.105065 0)
(0.000628223 0.145946 0)
(-0.162251 -0.00625019 -1.4507e-21)
(-0.181812 -0.00877871 0)
(-0.180346 -0.0274035 1.76531e-21)
(-0.114257 -0.00652837 1.05928e-21)
(-0.170268 -0.0355145 -1.9664e-21)
(-0.171142 -0.0328437 -3.24544e-21)
(-0.154721 -0.00740685 1.9586e-21)
(-0.16111 -0.0241927 1.79042e-21)
(-0.0954423 -0.000730673 -2.94384e-22)
(-0.122667 0.000427496 0)
(-0.000571071 0.168861 -4.27421e-22)
(-0.00393652 0.132687 0)
(0.00113343 0.180561 0)
(-0.000381142 0.186283 3.26985e-22)
(-6.5391e-05 0.0990969 0)
(0.00167031 0.144378 0)
(-0.148553 -0.0653363 0)
(-0.161652 -0.0580348 -2.16169e-21)
(-0.162002 -0.0621472 2.91989e-21)
(-0.134398 -0.0871507 0)
(-0.0786393 -0.0163414 0)
(-0.127559 -0.0277455 -1.22211e-21)
(-0.146677 -0.0352244 -2.28636e-21)
(-0.134192 -0.0691423 2.8083e-21)
(-0.146134 -0.0820255 -1.47929e-22)
(-0.0647406 -0.0339391 -7.03437e-22)
(-0.0248699 -0.0119626 0)
(-0.0137933 -0.0257302 2.1484e-21)
(-0.136461 -0.0334207 7.37918e-22)
(-0.140746 -0.0566592 -1.83379e-21)
(-0.086803 -0.00147795 -1.29961e-21)
(-0.118173 -0.0266892 1.85714e-21)
(-0.117371 -0.0719232 8.61228e-22)
(-0.121004 -0.0882606 0)
(-0.104335 -0.102062 1.57276e-21)
(-0.0302067 0.234865 3.19097e-24)
(-0.128207 0.299474 -2.98934e-21)
(-0.141198 0.223799 3.13432e-21)
(0.118558 0.186749 -2.51994e-21)
(-0.0154484 0.171937 1.44027e-21)
(-0.0177914 0.139167 -1.74392e-21)
(-0.0481482 0.2079 -8.93424e-22)
(-0.0168488 0.183925 -3.07494e-21)
(0.000772202 0.176788 -7.87759e-22)
(-0.00789495 0.181152 3.18219e-21)
(0.00109407 0.0941189 0)
(0.00223916 0.134319 2.89814e-22)
(-0.0626443 0.199759 4.23155e-21)
(-0.0997144 0.192634 -1.31936e-21)
(-0.107512 -0.11914 4.15215e-21)
(-0.128704 -0.104836 2.47839e-21)
(-0.125945 -0.1067 -3.33254e-21)
(-0.0773361 -0.0621117 5.33917e-22)
(-0.0964899 -0.120784 0)
(-0.102254 -0.0866719 2.48065e-22)
(-0.0382301 -0.0629129 -3.00289e-21)
(-0.0847134 -0.141324 -5.84349e-21)
(-0.0226868 -0.0888531 0)
(-0.0698172 -0.142159 2.05126e-21)
(-0.0496969 -0.159873 0)
(-0.0788872 -0.0274542 3.18105e-21)
(-0.0957351 -0.0620417 0)
(-0.0602256 -0.106023 -4.67064e-21)
(-0.0861494 -0.0946083 1.13909e-21)
(-0.017281 -0.00145205 1.35887e-21)
(-0.0507169 -0.00948841 -5.47205e-21)
(-0.105475 0.238426 -5.34551e-22)
(-0.127773 0.202603 0)
(0.00996709 0.194909 1.96853e-21)
(-0.135436 0.109094 -1.29744e-21)
(0.264742 0.0573678 9.57985e-22)
(-0.0273385 0.180231 2.0169e-21)
(-0.0485804 0.178449 -2.27141e-21)
(-0.0085022 0.150341 -1.66484e-21)
(-0.0187029 0.153288 2.87488e-21)
(0.00085515 0.0913639 1.34303e-21)
(-0.00632771 0.118247 -8.88804e-22)
(-0.155141 0.0189361 0)
(-0.108129 0.126063 -1.91579e-21)
(-0.139499 0.0884205 1.08994e-22)
(-0.146378 0.0485619 3.14565e-21)
(-0.0530472 0.13795 -1.22836e-21)
(-0.0850167 0.11388 1.19672e-21)
(-0.0634057 -0.147583 2.24965e-22)
(-0.0629111 -0.162579 5.0555e-22)
(-0.0471724 -0.17296 0)
(-0.0377257 -0.127864 -2.84041e-22)
(-0.00865021 -0.129635 1.90401e-23)
(-0.0279918 -0.17865 -3.58783e-21)
(-0.0307168 -0.154776 1.83876e-21)
(-0.0212026 -0.167528 -2.03164e-21)
(-0.0332056 -0.092599 3.19133e-21)
(-0.0244231 -0.13206 -2.66099e-21)
(-0.0126073 -0.0609796 0)
(-0.00220208 -0.0213952 0)
(-0.0530399 0.0573286 -4.5455e-22)
(-0.113852 0.0269345 1.63243e-21)
(0.105237 0.0607351 -6.6801e-22)
(0.375432 0.0176538 1.67356e-21)
(-0.123031 0.0162633 0)
(-0.172594 0.0106463 0)
(-0.0163155 0.11914 -2.08483e-21)
(-0.0331358 0.11445 0)
(-0.163608 -0.00422931 0)
(-0.160863 0.00215595 0)
(-0.00694403 0.0859388 0)
(-0.0061573 0.0972003 -9.49262e-22)
(-0.123099 0.0053864 0)
(-0.121491 0.0338142 -3.18305e-21)
(-0.04349 0.064225 0)
(-0.0821282 0.0683723 0)
(-0.096587 0.040653 2.69349e-21)
(-0.150188 -0.010604 5.67795e-22)
(-0.0119621 -0.18238 2.51299e-21)
(-0.011369 -0.167606 0)
(0.000252532 -0.135167 -4.01938e-23)
(-0.00728691 -0.159281 0)
(-0.00351134 -0.186123 0)
(-0.00453384 -0.102095 -3.52122e-21)
(-0.00281858 -0.132134 3.21293e-21)
(-0.0441387 0.0167193 0)
(0.124817 0.0123438 -1.38809e-21)
(0.375679 0.00255084 0)
(-0.182742 0.00432309 -4.68452e-22)
(-0.153133 0.00878667 1.1821e-23)
(-0.142654 0.00537132 -2.50516e-22)
(-0.172601 0.00599815 1.30656e-22)
(-0.00425942 0.0314594 5.48591e-21)
(-0.0320794 0.0259258 -1.03255e-21)
(-0.0693715 0.012324 -2.11792e-21)
(-0.08238 -0.0142301 0)
(-0.0825999 -0.00359818 0)
(0.000298072 0.00911669 1.72037e-21)
(-2.35162e-05 0.0229878 -6.50314e-21)
(-0.0635015 -0.00552374 0)
(0.00202312 -0.17504 -5.44288e-22)
(0.000380871 -0.134957 3.98484e-23)
(-0.00164382 -0.17962 -4.63202e-21)
(0.0012518 -0.18751 4.30826e-21)
(-0.00146785 -0.0997836 0)
(0.000229463 -0.143144 -5.35958e-22)
(0.0990805 -0.00268331 0)
(0.363304 -0.00154233 0)
(-0.166811 -0.00193036 4.27478e-22)
(-0.0928081 -0.00224078 -3.64893e-22)
(-0.148401 0.000225625 3.31495e-22)
(-0.182016 0.0067432 -5.56582e-22)
(-0.024487 -0.00084915 0)
(0.131222 -0.186401 -5.76532e-21)
(-0.150137 -0.22696 9.82748e-21)
(-0.000619102 -0.172992 1.67242e-22)
(-0.0034285 -0.137465 0)
(0.000954988 -0.179207 3.94842e-21)
(-0.00066403 -0.186331 -2.87809e-21)
(0.000625338 -0.0970291 0)
(0.00241481 -0.148313 -1.02843e-21)
(0.0909697 -0.000121831 -3.8459e-23)
(0.357832 -0.00326459 -2.0955e-21)
(-0.189034 -0.0031494 -2.14091e-21)
(-0.101907 -0.000178176 -6.25794e-22)
(-0.151646 0.00168135 5.32864e-22)
(-0.189769 -0.00175636 0)
(0.267636 -0.0533243 -6.96172e-21)
(0.0263731 -0.166607 -6.40573e-21)
(-0.015011 -0.173306 0)
(-0.0192397 -0.143797 0)
(0.131355 -0.00836349 -3.06327e-21)
(0.383156 -0.0157353 2.61087e-21)
(0.128929 -0.0594217 1.15831e-20)
(-0.054056 -0.212801 0)
(-0.1122 -0.219806 9.19458e-21)
(-0.0350498 -0.250743 1.60224e-21)
(-0.147578 -0.306092 -2.59641e-21)
(-0.066543 -0.195525 -1.80272e-23)
(-0.015381 -0.183511 -3.83789e-21)
(0.000210849 -0.178004 1.65009e-21)
(-0.0063637 -0.180803 6.07316e-21)
(0.00117436 -0.106707 -3.64511e-21)
(0.000157439 -0.145243 2.36683e-21)
(-0.047928 -0.0138278 2.45577e-21)
(-0.169391 0.00266191 3.73793e-21)
(-0.164821 -0.00565781 -3.37345e-21)
(-0.143889 7.09758e-05 2.48789e-22)
(-0.174284 -0.000250766 0)
(-0.0616621 -0.065852 -3.8454e-21)
(-0.14769 -0.173651 -2.63115e-21)
(-0.0446751 -0.175852 -6.38866e-21)
(-0.0270804 -0.177142 7.55008e-22)
(-0.126371 -0.0150673 0)
(-0.114887 -0.0286223 -9.97052e-22)
(-0.130304 -0.173502 -6.74509e-21)
(-0.0889234 -0.178276 8.708e-21)
(-0.0734786 -0.131079 6.39504e-21)
(-0.0510698 -0.14029 0)
(-0.0074477 -0.143656 0)
(-0.0175695 -0.147968 -2.51028e-21)
(-0.0014021 -0.0992706 0)
(-0.00755872 -0.121869 0)
(-0.186503 0.000122575 2.82186e-21)
(-0.177049 -0.00531005 -5.4435e-21)
(-0.136612 0.00214884 -2.61902e-22)
(-0.168418 -0.00295495 -1.59654e-21)
(-0.155223 -0.0198159 5.16629e-21)
(-0.147636 -0.0742835 -4.46187e-21)
(-0.0183628 -0.117643 1.505e-21)
(-0.0341619 -0.116465 3.62302e-21)
(-0.173428 0.00442388 4.46159e-21)
(-0.155505 0.00194546 -1.78856e-22)
(-0.042932 -0.0654171 -8.00968e-21)
(-0.0769129 -0.0786268 3.85606e-22)
(-0.109522 -0.0626751 1.41767e-21)
(-0.00735686 -0.0840824 0)
(-0.00803508 -0.0946578 -2.74651e-21)
(-0.137213 -0.00455763 -2.16306e-21)
(-0.157903 0.00805812 1.53812e-21)
(-0.0879565 0.0166503 1.42689e-21)
(-0.00658727 -0.0284978 0)
(-0.0340116 -0.0216113 3.56601e-21)
(-0.102343 0.0107585 1.60376e-22)
(-0.0931749 -0.0093569 0)
(0.00015476 -0.00962509 0)
(-0.00109588 -0.0231251 0)
(-0.0612019 0.00665219 -3.74765e-21)
(-0.0225746 0.00111863 2.94954e-21)
)
;

boundaryField
{
    movingWall
    {
        type            fixedValue;
        value           uniform (1 0 0);
    }
    fixedWalls
    {
        type            noSlip;
    }
    frontAndBack
    {
        type            empty;
    }
    defaultFaces
    {
        type            empty;
    }
}


// ************************************************************************* //
