/*--------------------------------*- C++ -*----------------------------------*\
  =========                 |
  \\      /  F ield         | OpenFOAM: The Open Source CFD Toolbox
   \\    /   O peration     | Website:  https://openfoam.org
    \\  /    A nd           | Version:  8
     \\/     M anipulation  |
\*---------------------------------------------------------------------------*/
FoamFile
{
    version     2.0;
    format      ascii;
    class       surfaceScalarField;
    location    "0.069";
    object      phi;
}
// * * * * * * * * * * * * * * * * * * * * * * * * * * * * * * * * * * * * * //

dimensions      [0 3 -1 0 0 0 0];

internalField   nonuniform List<scalar> 
1107
(
0.000315988
-0.000643388
0.000633494
-0.000306094
0.000616968
-0.00030098
-2.96871e-05
0.000646655
0.000304962
0.000538556
-0.000106654
-0.000736865
-0.000968718
0.000630292
-9.76566e-05
0.000701464
0.000286064
-5.36018e-05
-1.49161e-05
-3.72723e-05
0.000683927
-3.3051e-05
1.43467e-05
-8.79497e-05
0.000180752
-0.000148833
-6.49692e-05
0.000300272
-0.000856385
-0.00126768
0.000599238
-0.000207466
0.000740101
0.000760967
-9.67754e-05
4.17075e-05
0.000814911
-9.56511e-05
3.58077e-06
-4.28359e-05
-1.13354e-05
0.000725635
0.000853066
2.99214e-05
-6.80773e-05
6.44731e-05
-0.000126751
-8.65557e-05
2.51488e-05
-4.86255e-05
0.000227395
-0.000140759
-0.000213387
0.000277847
-0.000115422
0.000296552
-0.00087509
-0.00151061
0.000539474
-0.000366497
0.00075827
0.000828766
-0.00018544
0.000899227
-0.000166113
5.21559e-06
-2.29027e-05
-6.11977e-06
-2.22918e-05
0.000865047
1.03115e-05
0.000755556
0.00094617
-0.00011502
0.00096347
-3.95916e-05
0.000951853
-2.38979e-05
3.55145e-05
3.54042e-05
-7.27549e-05
-4.92051e-05
1.3622e-05
-2.68433e-05
-8.24002e-05
-0.000131114
0.000322167
-0.000215174
-0.00032038
0.000397171
-0.000190426
0.000306687
-0.000784605
0.000459872
-0.00166379
-0.000570354
0.000743331
0.000880864
-0.000308035
0.00096844
-0.000253689
2.99797e-06
-1.22786e-05
-3.12181e-06
8.81586e-05
0.000916897
-5.32018e-05
0.000853468
-1.23194e-05
0.000765867
0.00102611
-0.000172685
0.00105047
-6.39577e-05
0.00103964
4.63496e-05
0.000999426
0.000128369
-0.000118505
0.000932821
0.00018511
5.74527e-05
-0.000104205
-3.56475e-05
2.76047e-05
-1.93571e-05
1.04141e-05
-9.65262e-06
-0.00012977
-0.000216517
-6.19171e-05
-0.000172059
0.0006912
-0.000801683
0.000902303
-0.000467007
0.0010109
-0.000362282
2.20819e-06
-4.07277e-06
-9.13613e-07
0.00086565
-6.72583e-05
0.000823937
-2.36707e-05
0.000753548
0.000822854
-0.000147399
0.000257366
0.00107958
-0.000241367
0.00111068
-9.50563e-05
0.00110236
5.4662e-05
0.00105826
0.00017247
0.000974497
0.000268878
4.56513e-05
-3.06065e-05
-7.69619e-05
2.44413e-05
-1.44375e-05
1.1468e-05
-6.38375e-06
4.27936e-06
-2.46396e-06
0.000877233
-0.00065304
0.00100526
-0.000490306
8.82568e-07
-6.75975e-07
-3.10447e-08
0.000334137
0.000670014
-0.000181297
0.000790607
-7.23555e-05
0.000785614
-2.89349e-05
0.000729877
0.000827231
0.000404631
0.000622675
0.000538693
0.000388295
-0.00129506
0.00152944
0.00108445
-0.000320561
0.00112432
-0.000134921
0.00112313
5.58479e-05
0.00107773
0.000217869
0.000975203
0.000371405
-3.58713e-05
-5.57973e-05
6.10621e-05
-1.9268e-05
-3.10408e-05
-9.09227e-06
-1.65595e-05
-3.37988e-06
-8.17636e-06
-6.70593e-07
-3.38526e-06
-7.01638e-07
0.000988007
0.000345404
-0.000945115
0.00037151
-0.000996557
0.000688049
-7.87391e-05
0.000739101
-2.58423e-05
0.000700942
0.000793465
0.000586369
0.000547555
0.000784602
0.00041189
0.00166511
0.000483352
0.000916544
-5.78821e-05
-9.54247e-05
9.75095e-05
-3.13309e-05
-5.7592e-05
-1.47863e-05
-3.31041e-05
-5.47329e-06
-1.74893e-05
-1.09569e-06
-7.76286e-06
-1.79733e-06
0.000101458
0.000300654
-5.67084e-05
0.000227764
-0.000801369
0.000357808
-0.000666316
0.000680877
-2.0516e-05
0.0006751
0.000415889
0.000168921
-4.46223e-05
-0.000125338
7.45357e-05
-2.4526e-05
-7.76882e-05
-1.18006e-05
-4.58295e-05
-4.48893e-06
-2.4801e-05
-9.73138e-07
-1.12787e-05
-2.77046e-06
0.000246481
0.000202958
-0.000148785
0.000201328
-3.02733e-05
0.00013623
-0.000579791
0.000342994
-0.000328433
0.000654584
0.000297716
0.000364654
-1.47571e-05
-0.000134211
2.36295e-05
-8.36253e-06
-8.40828e-05
-4.13852e-06
-5.00535e-05
-1.66008e-06
-2.72794e-05
-4.05042e-07
-1.25337e-05
-3.17551e-06
0.000150019
0.000136486
-8.35469e-05
0.00012909
-7.65472e-05
0.000120986
-1.50295e-05
7.0007e-05
-0.000306804
0.000326151
0.000201915
0.00024582
1.39962e-05
-0.000122556
-2.56507e-05
7.1123e-06
-7.71988e-05
3.16926e-06
-4.61105e-05
1.11814e-06
-2.52283e-05
1.79642e-07
-1.15952e-05
-2.99586e-06
0.00012993
7.89112e-05
-7.2355e-05
8.59869e-05
-4.04435e-05
7.41943e-05
-2.97554e-05
5.93488e-05
-4.37131e-06
1.93472e-05
0.000119989
0.000211856
-8.92818e-05
5.99961e-05
0.000149275
1.62204e-05
-3.57601e-05
-0.000103016
7.5773e-06
-6.85557e-05
3.2391e-06
-4.17723e-05
1.16883e-06
-2.3158e-05
2.25044e-07
-1.06514e-05
-2.77082e-06
3.85057e-05
-4.88763e-05
4.86335e-05
-3.50016e-05
4.90573e-05
-1.53065e-05
3.54274e-05
-5.83405e-06
1.49759e-05
-5.23023e-05
2.40063e-05
8.8292e-05
-3.18851e-05
5.77061e-05
-6.75932e-05
-1.25581e-05
-4.2485e-05
-2.81526e-06
-2.03943e-05
-5.58608e-06
1.45193e-05
-2.83159e-05
2.31326e-05
-2.33754e-05
2.72468e-05
-1.31911e-05
2.32021e-05
-3.08114e-06
9.1418e-06
4.93336e-06
-2.58392e-05
4.49122e-05
-2.07453e-06
7.06986e-06
7.25332e-06
-1.22487e-05
-1.29786e-05
5.60362e-05
-6.34518e-05
-1.85647e-05
-1.92998e-06
-8.22841e-06
1.50918e-05
2.33253e-06
-1.36525e-05
8.21854e-06
-1.34018e-05
1.26549e-05
-8.78354e-06
1.27267e-05
-2.71581e-06
6.06066e-06
1.56604e-06
4.38163e-06
-8.0222e-06
-4.98092e-07
3.46925e-06
4.09869e-06
-1.88868e-06
8.47852e-06
-1.68574e-05
1.02676e-05
-3.1036e-06
-3.36193e-07
1.50981e-06
-1.79338e-06
-4.10251e-06
8.97557e-07
-6.33147e-06
4.24495e-06
-4.99184e-06
5.79406e-06
-1.85086e-06
3.34486e-06
3.50926e-06
1.70654e-06
-3.64976e-06
1.67731e-06
2.20621e-06
1.18057e-07
1.4625e-06
-7.53141e-07
3.0478e-06
6.18384e-06
-2.68318e-06
4.81372e-06
-2.3889e-05
2.17585e-05
-2.17506e-06
2.17203e-06
-3.10056e-06
-2.23842e-06
1.08827e-07
-1.41712e-06
-1.78784e-06
2.36605e-07
-2.32312e-06
1.84492e-06
-1.04271e-06
1.494e-06
3.84727e-06
-3.38932e-07
9.21217e-10
2.66271e-06
7.21132e-07
1.33875e-06
9.85516e-07
2.42389e-07
4.6697e-07
-2.00852e-07
5.65466e-07
-5.83077e-07
5.39678e-06
-1.21448e-06
1.74159e-06
-2.70218e-06
-1.40557e-06
1.33916e-06
-1.48126e-06
1.72969e-07
-9.40038e-07
-6.11197e-07
3.77707e-09
-4.81977e-07
4.51289e-07
2.70704e-06
-2.27667e-06
3.4169e-06
2.65716e-06
-3.33398e-07
1.80061e-06
2.59265e-07
8.83317e-07
3.44586e-07
1.82779e-07
8.3338e-08
-1.76119e-08
-1.68727e-06
-9.51859e-07
1.42465e-06
-6.61068e-07
9.97079e-07
-8.41969e-07
6.99871e-07
-8.73327e-07
1.06257e-07
-4.9642e-07
-1.11001e-07
-3.06873e-08
1.50296e-06
-2.03496e-06
3.23903e-06
1.72621e-06
-1.34573e-06
1.68406e-06
-2.16845e-07
1.0752e-06
6.73853e-08
4.62324e-07
6.50408e-08
6.57257e-08
-2.47059e-06
-1.39617e-06
2.17949e-06
-1.04643e-06
-5.6651e-07
-3.36909e-07
4.92017e-07
-4.55069e-07
2.81611e-07
-4.23285e-07
3.31213e-08
-1.41688e-07
2.15562e-06
1.27706e-06
-1.92972e-06
8.35813e-07
-1.14457e-06
1.01723e-06
-6.78909e-07
9.58648e-07
-1.00297e-07
5.24108e-07
5.60101e-09
1.30766e-07
-2.93513e-06
-7.52944e-07
1.21747e-06
-1.63355e-06
-8.0906e-07
-6.10127e-07
-2.93295e-07
-1.5261e-07
1.89555e-07
-2.03926e-07
6.22514e-08
-1.08568e-07
-2.834e-06
1.91183e-07
-2.92314e-07
1.29571e-06
-1.97409e-06
1.35163e-06
7.61233e-07
4.31906e-07
-5.59244e-07
5.44067e-07
-2.64329e-07
4.50225e-07
-2.64146e-08
1.36367e-07
-1.95906e-06
-4.27444e-07
-1.01344e-06
-4.05746e-07
-3.25495e-07
-1.20412e-07
-5.35501e-08
3.91778e-08
-4.6317e-08
-1.88356e-06
1.15664e-07
7.63773e-07
7.9854e-07
3.94597e-07
1.99021e-07
-2.14199e-07
2.41958e-07
-5.60622e-08
1.09952e-07
-1.22838e-06
-2.12509e-07
-5.71598e-07
-1.59644e-07
-1.46094e-07
-2.78699e-08
-7.13991e-09
-1.17394e-06
6.12229e-08
3.88374e-07
4.31602e-07
1.62015e-07
7.15808e-08
-4.38223e-08
5.38902e-08
-6.99706e-07
-8.44021e-08
-2.69943e-07
-3.5795e-08
-3.50102e-08
-6.65023e-07
2.65386e-08
1.54953e-07
1.95964e-07
3.76314e-08
1.00674e-08
-3.34598e-07
-1.97486e-08
-7.08054e-08
-3.15389e-07
7.32944e-09
3.55267e-08
4.76984e-08
-9.05543e-08
-8.32251e-08
0.000597178
-0.00138178
-0.00106661
0.000323401
-0.000539918
0.000860693
-0.000537292
0.000540312
0.00130424
-0.000763926
0.00111381
-0.000267971
0.00157007
-0.00183804
0.000503455
-0.000298227
-0.00139491
0.00063098
0.000139434
-0.000311493
-0.000400484
4.44267e-05
-0.000121389
-0.000267066
0.000331849
-0.000732333
0.00117716
-0.000845311
0.000639868
-0.000755038
0.00207404
-0.00144306
0.000236001
0.00130967
-0.00107367
0.00101144
0.000358401
0.00101925
-0.00177428
-0.000423814
-6.03265e-05
0.000230335
-0.000290662
-3.67309e-05
-0.000769063
-6.73851e-05
-0.000701678
0.00137392
-0.00144131
0.000528614
-0.00124567
0.00142812
-0.00185193
0.000354451
0.000887025
-0.000532574
-0.00124543
0.00075512
-0.00137915
0.00105858
-0.000624025
0.000990041
-0.00223571
-0.000861891
0.000861441
0.000803667
0.00177799
-0.00041292
0.000999289
-0.00149404
0.00135912
-0.000435455
-0.0011623
0.000749375
-0.00079089
-0.00132521
0.00138106
3.39094e-05
-0.00129349
0.000502602
-0.00107562
0.000305433
-0.000193152
0.000132839
-0.000325991
-0.00056884
0.000281238
-0.000850077
-0.00116007
0.000202659
-0.00136273
-0.00203305
0.00114356
-0.00200545
-0.000610986
-1.30395e-05
-0.0006672
0.000231744
-0.000680239
-2.45961e-05
-0.00200846
-0.00203005
-0.000901656
0.00170532
-0.000117054
0.000882235
0.000281938
0.00149605
0.00198726
0.00166497
-2.66601e-05
0.000908895
-0.00101682
0.000990158
-0.000267443
-0.000586908
0.000620817
-0.000355163
-0.000971333
0.00070389
-0.000468731
-0.000797867
0.000329136
-0.000492434
0.000128383
-0.000251455
8.12064e-05
-0.000332662
-0.000768871
3.49557e-05
-0.000803827
-0.00132777
-0.000350927
-0.000976847
-0.00235938
0.000884809
-0.00123997
0.00020457
-0.00182548
-0.00142598
0.000186006
0.000920307
-0.00274578
-0.00143908
0.000538835
0.00144843
0.00144773
-0.00100909
0.00137374
0.00065588
0.00210431
9.8944e-05
0.00134879
0.0010891
4.41858e-05
0.00104492
0.000748076
0.000218032
0.000530044
0.000547169
0.000675552
-0.000750426
-0.000309032
1.00392e-05
-0.000319071
-0.000793788
-0.000349439
-0.000444349
-0.00132629
-0.00042482
-0.000901466
-0.0018639
0.00201396
-0.00182795
-0.000731825
0.00173281
-0.00248324
-9.51386e-05
0.00128855
-0.00202038
-0.000575346
-0.000617087
0.000862907
0.000756656
-0.00121294
0.0019696
0.000891364
0.00224015
0.0014063
0.000833854
0.00245121
0.00298126
-0.000632563
0.00205918
-0.00142662
0.0031158
-0.000134547
-0.000344722
0.000565023
-0.00114037
-9.40231e-05
-0.000250699
-0.000538372
-0.000119149
-0.000419223
-0.00102061
-0.000455591
0.00182429
0.000234893
-0.00172915
-0.000291226
-0.000733274
0.000968167
-0.00097721
-0.000163159
0.000647991
-0.000939218
-0.000329219
-0.00117882
0.000445543
-0.000325296
0.000537152
0.000537611
2.80032e-05
-0.000605706
0.000577703
-0.00115081
-0.000122761
0.0003492
-0.000226439
-0.000728467
-0.000702924
0.00124054
0.00126667
0.00210053
-0.000341447
-0.000809367
-0.00176807
0.00121698
0.000883548
0.00108243
-0.000685632
-0.000286459
0.000394851
-0.00055801
-0.000676703
0.000221112
-0.000281852
-0.000125808
-0.000160651
-0.000545032
-0.00032392
-0.00126089
0.000321668
-0.000292719
-0.000608573
0.000315854
-0.000163029
-0.000503002
-5.50077e-05
0.000832221
-0.000510553
-0.000676609
0.00051358
-9.89061e-05
0.00036903
-1.98298e-05
0.000270124
-0.000219587
0.000199757
1.72027e-05
0.000144649
-0.000161852
-0.000202385
-0.000428824
-0.000259249
-0.000169575
-0.00011298
0.000262255
0.000424172
-0.000149224
0.000573395
0.00109131
0.000317295
-0.000576544
-0.000411171
-0.00122054
0.000468794
0.000622518
-0.000666709
-0.00055383
0.00135234
-2.15539e-05
0.000109846
0.000240701
0.000113866
-0.000274517
-1.08496e-05
-0.000466291
0.000184439
-0.000521299
-0.000100943
-0.000173574
-0.000424863
-0.000240424
0.000483729
2.98506e-05
-0.000799583
0.00028903
-0.000531951
1.06525e-05
-0.000242922
-0.000300865
0.000330716
-0.000346496
4.56304e-05
-7.63721e-05
-0.000238771
0.000162399
-3.90137e-05
-0.000132016
9.30025e-05
1.26331e-05
5.50543e-06
2.43784e-05
-2.98838e-05
1.27587e-05
-2.40463e-05
4.84247e-05
6.98022e-05
-9.38485e-05
8.24352e-05
-4.69313e-05
-4.69172e-05
-0.000208783
-2.42557e-05
-5.62818e-06
-7.11729e-05
-1.78769e-05
-0.000102284
-0.0001065
-0.000271859
-0.000104183
-0.000167676
-0.000680726
-9.42478e-05
0.000334949
0.000479147
0.00110167
-0.000443638
-0.000237088
0.000997468
0.000104198
1.87156e-05
2.61966e-05
0.000128562
4.65803e-05
8.19813e-05
0.000381529
5.4042e-05
-0.000227616
1.35512e-05
-7.32795e-05
-0.000154336
-0.000313704
-0.000303051
-0.000234912
-6.81391e-05
-0.000477833
-0.000147118
0.000191974
-2.95745e-05
-0.000237604
9.04862e-05
5.34718e-05
2.89634e-05
0.000146474
0.0001169
4.09871e-05
7.43765e-06
6.99505e-05
1.77052e-05
-4.91436e-05
-2.20293e-05
-0.000155643
-2.30921e-05
5.21529e-06
-4.51215e-05
-2.80694e-06
1.5235e-05
-1.43226e-07
4.14316e-05
-0.00010328
-5.23632e-05
-0.000270956
-0.000148688
-0.000122268
-0.000385776
0.000342198
3.93308e-05
0.000446396
6.06197e-05
9.44068e-06
3.19909e-05
9.14219e-05
0.000130753
9.71058e-05
-2.71553e-05
0.000214006
-0.000236353
8.20165e-05
-0.000304492
-1.85647e-05
-5.39677e-06
-8.06324e-06
7.92001e-06
-6.55345e-06
-4.07886e-05
-4.33286e-06
-9.31518e-05
-1.27184e-05
9.91148e-06
-1.70513e-05
6.26171e-06
1.14494e-05
-3.5294e-06
4.34403e-05
-7.52682e-05
-1.78836e-05
-0.000197536
-0.000136916
3.34663e-05
9.97396e-06
0.000164219
2.73028e-05
-8.41166e-06
4.88226e-06
5.08774e-06
-8.18831e-06
-1.46572e-06
-9.87738e-06
-7.67261e-07
-7.42105e-06
-3.46946e-06
-3.0359e-05
1.33077e-05
-4.82426e-05
-1.81233e-06
8.07404e-06
1.14954e-05
8.07494e-06
1.31448e-05
-8.26256e-06
2.31188e-05
3.05063e-05
-7.38749e-06
-5.7809e-05
9.5664e-06
-4.49875e-07
-9.42751e-06
-8.71245e-06
-2.52013e-06
-4.90093e-06
-1.19477e-05
-2.04482e-06
-6.94576e-06
2.83014e-06
8.66525e-06
1.23965e-05
-4.25277e-06
7.66966e-06
3.82218e-06
1.24874e-05
-2.5731e-06
-6.13935e-06
-9.9606e-06
-1.12656e-05
1.30499e-06
1.13094e-06
8.30032e-07
6.83963e-06
4.06905e-06
-8.18416e-06
-3.76349e-06
-1.43235e-05
-4.76628e-06
-8.52978e-06
4.99349e-07
6.34027e-06
1.29868e-05
1.41177e-05
-1.29917e-05
-1.33187e-06
1.16867e-05
2.43103e-06
2.13933e-06
8.4796e-06
-7.31232e-06
-8.6442e-06
-8.93652e-06
6.5055e-06
)
;

boundaryField
{
    movingWall
    {
        type            calculated;
        value           uniform 0;
    }
    fixedWalls
    {
        type            calculated;
        value           uniform 0;
    }
    frontAndBack
    {
        type            empty;
        value           nonuniform List<scalar> 0();
    }
    defaultFaces
    {
        type            empty;
        value           nonuniform List<scalar> 0();
    }
}


// ************************************************************************* //
