/*--------------------------------*- C++ -*----------------------------------*\
  =========                 |
  \\      /  F ield         | OpenFOAM: The Open Source CFD Toolbox
   \\    /   O peration     | Website:  https://openfoam.org
    \\  /    A nd           | Version:  8
     \\/     M anipulation  |
\*---------------------------------------------------------------------------*/
FoamFile
{
    version     2.0;
    format      ascii;
    class       volVectorField;
    location    "0.069";
    object      U;
}
// * * * * * * * * * * * * * * * * * * * * * * * * * * * * * * * * * * * * * //

dimensions      [0 1 -1 0 0 0 0];

internalField   nonuniform List<vector> 
424
(
(-0.00293616 -0.000189964 6.80874e-26)
(-0.0146516 0.00096156 0)
(-0.013102 0.00276777 2.04587e-23)
(0.000179582 0.00315101 -1.16702e-24)
(-0.0473535 0.0051473 -2.47646e-23)
(-0.0230449 0.000844524 -3.38781e-23)
(-0.00299435 0.0138299 3.23444e-24)
(-0.000995342 0.0155055 -7.93621e-25)
(-0.0687359 0.00259467 -3.6131e-23)
(-0.0257653 0.000296801 3.10976e-23)
(-0.0703236 0.00228279 9.63768e-23)
(-0.0240381 0.000465965 0)
(-0.0051976 0.0503239 1.16767e-24)
(-0.000963631 0.0244879 0)
(-0.0744401 0.000564811 3.3026e-23)
(-0.0255812 -4.0793e-05 1.7511e-23)
(-0.0590492 0.000689201 0)
(-0.0196482 7.80997e-05 0)
(-0.00034138 0.0271133 0)
(-0.00267687 0.0732623 -2.7844e-23)
(-0.0734025 4.81155e-05 3.49545e-23)
(-0.0258208 -0.000338611 -1.87545e-23)
(-0.05732 0.0002365 0)
(-0.0196374 5.60105e-05 0)
(1.31926e-05 0.0260436 1.30697e-23)
(-0.000172623 0.0781327 2.51268e-23)
(-0.00233361 0.0684512 -3.74645e-23)
(-0.000418205 0.0233102 -3.89038e-23)
(-0.0750839 -0.000327197 5.88741e-23)
(-0.0232409 -0.000847993 0)
(-0.0150332 -0.0009694 -1.31698e-22)
(-0.0030388 0.000215693 0)
(-0.0530519 -1.92074e-05 -1.05688e-22)
(-0.0180551 3.82497e-05 9.88297e-23)
(-0.0222842 0.0479302 6.83823e-23)
(0.000239869 0.0268001 0)
(0.000145866 0.0295877 -2.27069e-22)
(0.00335076 0.063145 2.33922e-22)
(8.24657e-05 0.0746636 2.79497e-23)
(-0.000419351 0.060114 3.9227e-24)
(-6.77751e-06 0.0199984 -3.85035e-24)
(-0.0699946 -0.00256854 -1.05445e-22)
(-0.048991 -0.00549397 1.33517e-22)
(-0.0141026 -0.00310147 0)
(0.00022404 -0.00336413 -2.95519e-22)
(-0.0494738 -0.000265429 3.47e-22)
(-0.0162225 -3.37417e-05 0)
(-0.106049 0.152678 -1.89065e-22)
(0.809203 0.0278417 -5.01858e-23)
(-0.000696186 0.0781759 -1.62202e-23)
(-0.0057309 0.086656 0)
(-0.00507365 0.166848 -3.61595e-24)
(-0.000244493 0.0579438 0)
(-4.43902e-05 0.0199176 0)
(-0.0040004 -0.0151977 5.94383e-23)
(-0.00125641 -0.0170687 2.58428e-22)
(-0.0531152 -0.000629293 0)
(-0.0174755 -0.000155192 0)
(0.405639 0.118729 1.41483e-22)
(0.861377 -0.0037885 -1.19168e-23)
(0.000144674 0.0544628 -9.27309e-23)
(-8.89664e-06 0.0187227 8.78988e-23)
(-0.00671221 -0.0544258 0)
(-0.00104167 -0.0268091 0)
(0.551437 0.0129207 1.56436e-22)
(0.88273 -0.00213943 0)
(0.000408085 0.0516086 -7.97508e-23)
(9.8764e-05 0.017475 7.33896e-23)
(-0.000335113 -0.029296 6.02645e-23)
(-0.00298275 -0.0790271 -1.8595e-23)
(0.880717 -0.00128592 -1.38275e-23)
(0.626374 0.0020613 -1.15917e-22)
(-0.00228605 0.0558784 0)
(-0.000204684 0.0209848 0)
(7.71747e-05 -0.0288862 4.72763e-23)
(-0.000366268 -0.0834845 1.91047e-23)
(-0.00189932 -0.0658997 -3.97208e-22)
(-0.00034352 -0.0224362 0)
(0.879096 -0.000317034 1.30631e-23)
(0.637002 -0.000768016 -4.91217e-23)
(0.826678 -0.0267488 0)
(0.000338162 -0.0288245 -9.09959e-23)
(0.881773 0.0014074 0)
(0.886711 0.00204225 0)
(0.865839 0.00377292 0)
(-0.019522 -0.0491256 0)
(0.00355483 -0.0683077 -4.80776e-22)
(0.000174777 -0.0308329 5.9567e-22)
(0.000290606 -0.0821744 4.36575e-23)
(-0.000559816 -0.0577256 0)
(-3.69037e-05 -0.0192443 0)
(0.639154 -0.000725829 -2.08442e-23)
(-0.104738 0.00186894 -4.20518e-23)
(0.447584 -0.115196 9.64675e-22)
(-0.000517992 -0.0839561 -8.91267e-23)
(0.641639 0.001318 -1.2372e-22)
(0.643162 -0.00139838 2.57371e-22)
(0.570044 -0.0108389 -1.24184e-21)
(-0.1084 -0.154018 -1.80905e-22)
(-0.00644852 -0.179396 7.01049e-22)
(-0.00653531 -0.0905101 -5.692e-22)
(5.53402e-05 -0.0573277 -3.09733e-23)
(3.52144e-05 -0.0196925 3.00378e-23)
(-0.0932071 5.79493e-05 0)
(-0.040508 -4.34303e-05 -4.09738e-23)
(0.0003876 -0.0594248 -1.38401e-22)
(6.08985e-05 -0.0204904 -1.31588e-22)
(-0.0956125 -0.000318154 2.40232e-23)
(-0.0338644 6.27525e-06 0)
(-6.3991e-05 -0.0579788 9.95369e-23)
(8.55363e-05 -0.0199456 -9.489e-23)
(-0.0893469 -0.000141652 -2.48827e-22)
(-0.0351837 -0.000111244 -2.27466e-23)
(-0.00299848 -0.0605819 0)
(-0.000220445 -0.0234974 0)
(-0.0824086 0.000297732 1.35986e-22)
(-0.0326827 -6.71754e-05 0)
(-0.0935491 -0.00161887 0)
(-0.0294521 -9.46342e-06 1.2164e-22)
(-0.0350905 -0.000114693 0)
(-0.0797292 0.0171033 2.51289e-24)
(-0.0236554 0.0118477 0)
(-0.0636784 0.0352353 0)
(-0.0121543 0.0248777 -1.84919e-24)
(-0.129971 0.107078 2.70464e-23)
(-0.157661 0.0741199 4.77125e-22)
(-0.0864159 0.136101 3.6018e-23)
(-0.107474 0.116585 -1.3305e-23)
(-0.154483 0.0625083 -8.02889e-22)
(-0.159255 0.0373118 -2.63915e-23)
(-0.136495 0.0285378 -7.20591e-22)
(-0.122897 0.0288299 -1.92551e-22)
(-0.14644 0.0477378 -6.4275e-22)
(-0.166186 0.0511759 8.3909e-22)
(-0.173057 0.0243194 -6.00132e-22)
(-0.180483 0.0268211 1.08106e-22)
(-0.11201 0.00669841 1.81301e-22)
(-0.165204 0.0073965 1.24483e-21)
(-0.109428 0.00549293 2.6264e-22)
(-0.136141 0.00295628 3.40123e-22)
(-0.0367936 0.0645044 2.98978e-23)
(-0.103693 0.113231 0)
(-0.0718215 0.0680844 -2.47485e-23)
(-0.101899 0.0915909 0)
(-0.0735664 0.13899 5.30028e-23)
(-0.0750831 0.148141 -1.36493e-22)
(-0.0193357 0.0863835 -2.96992e-25)
(-0.0501169 0.165074 2.19497e-22)
(-0.0697567 0.133915 -4.78453e-23)
(-0.047238 0.157523 2.8696e-22)
(-0.0615887 0.103857 -5.766e-23)
(-0.0975209 0.0922555 -2.7735e-23)
(-0.108761 0.0662108 0)
(-0.0950864 0.0359795 1.22421e-22)
(-0.0232881 0.00244736 -2.99276e-22)
(-0.0654509 0.0141517 3.45277e-22)
(-0.160684 0.00870818 0)
(-0.179701 0.00904283 0)
(-0.188155 0.00221189 -8.63626e-22)
(-0.124778 0.000722832 -1.54643e-21)
(-0.181808 0.00212988 2.80046e-21)
(-0.102245 0.00153797 7.0878e-22)
(-0.144513 -0.000259784 7.39598e-22)
(-0.034921 0.1316 -2.11303e-23)
(-0.0443193 0.153546 2.05827e-23)
(-0.0339291 0.178052 -2.34689e-22)
(-0.00640126 0.11841 7.74668e-22)
(-0.0204737 0.182822 1.15942e-22)
(-0.0260376 0.150754 4.82129e-23)
(-0.0147844 0.168122 -3.00198e-22)
(-0.0335764 0.0890451 1.67357e-22)
(-0.0206276 0.131572 -1.1726e-21)
(-0.0144269 0.0642272 0)
(-0.00246976 0.0228895 0)
(-0.170571 -0.000968494 8.75413e-22)
(-0.187699 -0.00029766 -2.6118e-21)
(-0.127497 0.000711313 -9.19977e-22)
(-0.178975 0.000117987 2.91444e-21)
(-0.100093 -4.6237e-05 -1.15725e-21)
(-0.145371 -0.000447475 1.43859e-21)
(-0.00533162 0.164861 -6.92794e-22)
(-0.00649967 0.183312 5.23061e-22)
(0.00121425 0.128617 0)
(-0.00490259 0.160072 0)
(-0.00167916 0.187755 -1.05472e-21)
(-0.00396842 0.103314 8.0192e-22)
(-0.000375949 0.133322 0)
(-0.170373 0.00217806 8.74404e-22)
(-0.185661 0.00138086 1.97119e-22)
(-0.131547 0.000716737 1.261e-21)
(-0.178099 -0.00155616 -1.91413e-21)
(-0.183745 -0.00332104 -2.01379e-21)
(-0.0963145 -0.000686803 -2.2691e-21)
(-0.136435 -0.000602646 9.84811e-22)
(0.00381282 0.168849 7.66843e-22)
(0.000864418 0.122814 -8.12008e-22)
(-0.000312855 0.181901 2.55929e-21)
(0.00247996 0.187935 -1.97769e-21)
(-0.000652055 0.105068 0)
(0.000628242 0.14595 0)
(-0.162257 -0.00625034 -1.4507e-21)
(-0.181819 -0.0087789 0)
(-0.180352 -0.0274044 1.76531e-21)
(-0.114261 -0.00652858 1.05928e-21)
(-0.170273 -0.0355157 -1.9664e-21)
(-0.171148 -0.0328448 -3.24545e-21)
(-0.154726 -0.00740708 1.9586e-21)
(-0.161115 -0.0241935 1.79043e-21)
(-0.0954451 -0.000730665 -2.94384e-22)
(-0.122671 0.000427524 0)
(-0.000571177 0.168867 -4.2742e-22)
(-0.00393654 0.132691 0)
(0.0011335 0.180567 0)
(-0.000381181 0.186289 3.26984e-22)
(-6.54016e-05 0.0990998 0)
(0.00167033 0.144382 0)
(-0.148558 -0.0653383 0)
(-0.161657 -0.0580366 -2.16169e-21)
(-0.162007 -0.0621492 2.91989e-21)
(-0.134402 -0.0871533 0)
(-0.0786418 -0.0163419 0)
(-0.127564 -0.0277464 -1.22211e-21)
(-0.146682 -0.0352255 -2.28637e-21)
(-0.134196 -0.0691446 2.80831e-21)
(-0.146139 -0.0820282 -1.47929e-22)
(-0.0647426 -0.0339402 -7.03438e-22)
(-0.0248706 -0.011963 0)
(-0.0137937 -0.0257309 2.1484e-21)
(-0.136465 -0.0334217 7.37918e-22)
(-0.14075 -0.0566609 -1.83378e-21)
(-0.0868054 -0.00147799 -1.29961e-21)
(-0.118176 -0.02669 1.85713e-21)
(-0.117374 -0.0719253 8.61228e-22)
(-0.121007 -0.0882632 0)
(-0.104338 -0.102065 1.57276e-21)
(-0.030206 0.234868 3.19097e-24)
(-0.128205 0.299476 -2.98934e-21)
(-0.141198 0.2238 3.13432e-21)
(0.118559 0.18675 -2.51993e-21)
(-0.0154482 0.171943 1.44027e-21)
(-0.0177911 0.139171 -1.74392e-21)
(-0.0481471 0.207905 -8.93423e-22)
(-0.0168486 0.183931 -3.07493e-21)
(0.00077223 0.176794 -7.87756e-22)
(-0.00789494 0.181158 3.18218e-21)
(0.00109408 0.0941216 0)
(0.00223922 0.134323 2.89813e-22)
(-0.0626427 0.199764 4.23154e-21)
(-0.0997113 0.192639 -1.31935e-21)
(-0.107515 -0.119144 4.15216e-21)
(-0.128709 -0.104839 2.47839e-21)
(-0.125949 -0.106704 -3.33254e-21)
(-0.0773388 -0.0621139 5.33918e-22)
(-0.0964931 -0.120788 0)
(-0.102257 -0.0866749 2.48066e-22)
(-0.0382314 -0.0629149 -3.00289e-21)
(-0.084716 -0.141328 -5.84349e-21)
(-0.0226876 -0.0888559 0)
(-0.0698193 -0.142164 2.05126e-21)
(-0.0496984 -0.159878 0)
(-0.0788893 -0.027455 3.18105e-21)
(-0.0957377 -0.0620435 0)
(-0.0602273 -0.106026 -4.67064e-21)
(-0.0861518 -0.094611 1.13909e-21)
(-0.0172814 -0.00145209 1.35887e-21)
(-0.0507182 -0.00948869 -5.47204e-21)
(-0.105472 0.238428 -5.34551e-22)
(-0.127769 0.202607 0)
(0.00996914 0.19491 1.96852e-21)
(-0.135431 0.109097 -1.29744e-21)
(0.264744 0.0573685 9.57982e-22)
(-0.0273379 0.180237 2.0169e-21)
(-0.048579 0.178455 -2.27141e-21)
(-0.00850202 0.150346 -1.66483e-21)
(-0.0187024 0.153293 2.87487e-21)
(0.000855202 0.0913665 1.34303e-21)
(-0.00632763 0.11825 -8.88801e-22)
(-0.155136 0.0189379 0)
(-0.108125 0.126067 -1.91579e-21)
(-0.139495 0.0884238 1.08994e-22)
(-0.146373 0.0485647 3.14564e-21)
(-0.0530452 0.137955 -1.22836e-21)
(-0.0850137 0.113884 1.19671e-21)
(-0.0634078 -0.147588 2.24965e-22)
(-0.0629131 -0.162585 5.0555e-22)
(-0.0471739 -0.172966 0)
(-0.037727 -0.127868 -2.84041e-22)
(-0.00865052 -0.129639 1.90402e-23)
(-0.0279926 -0.178656 -3.58783e-21)
(-0.0307178 -0.154781 1.83876e-21)
(-0.0212033 -0.167533 -2.03165e-21)
(-0.0332065 -0.0926016 3.19133e-21)
(-0.0244238 -0.132064 -2.66099e-21)
(-0.0126077 -0.0609812 0)
(-0.00220215 -0.0213957 0)
(-0.053035 0.0573298 -4.54548e-22)
(-0.113846 0.0269355 1.63242e-21)
(0.105241 0.0607363 -6.68006e-22)
(0.375436 0.0176541 1.67355e-21)
(-0.123025 0.0162639 0)
(-0.172588 0.010647 0)
(-0.0163145 0.119145 -2.08482e-21)
(-0.0331342 0.114454 0)
(-0.163603 -0.00422815 0)
(-0.160858 0.00215751 0)
(-0.00694396 0.0859414 0)
(-0.00615664 0.097204 -9.4926e-22)
(-0.123095 0.00538864 0)
(-0.121487 0.0338171 -3.18305e-21)
(-0.0434878 0.0642287 0)
(-0.0821254 0.0683761 0)
(-0.0965838 0.0406562 2.69349e-21)
(-0.150185 -0.0106031 5.67794e-22)
(-0.0119624 -0.182387 2.51299e-21)
(-0.0113693 -0.167612 0)
(0.000252542 -0.135171 -4.01938e-23)
(-0.00728717 -0.159286 0)
(-0.00351146 -0.186129 0)
(-0.00453399 -0.102098 -3.52123e-21)
(-0.0028187 -0.132138 3.21293e-21)
(-0.0441325 0.0167194 0)
(0.124822 0.012344 -1.38808e-21)
(0.375683 0.00255082 0)
(-0.182737 0.00432328 -4.68449e-22)
(-0.153127 0.00878666 1.18191e-23)
(-0.142651 0.0053714 -2.50515e-22)
(-0.172597 0.00599818 1.30656e-22)
(-0.00425863 0.0314617 5.4859e-21)
(-0.0320778 0.0259284 -1.03255e-21)
(-0.0693691 0.0123264 -2.11792e-21)
(-0.0823777 -0.0142292 0)
(-0.0825972 -0.00359642 0)
(0.000298123 0.00911716 1.72036e-21)
(-2.32301e-05 0.0229892 -6.50313e-21)
(-0.0634999 -0.00552339 0)
(0.00202319 -0.175046 -5.44289e-22)
(0.000380856 -0.134961 3.98484e-23)
(-0.00164379 -0.179626 -4.63202e-21)
(0.00125187 -0.187516 4.30827e-21)
(-0.00146789 -0.0997865 0)
(0.000229445 -0.143149 -5.35958e-22)
(0.0990862 -0.00268338 0)
(0.363308 -0.00154232 0)
(-0.166805 -0.00193046 4.27483e-22)
(-0.0928016 -0.0022409 -3.64897e-22)
(-0.148398 0.000225627 3.31493e-22)
(-0.182012 0.00674319 -5.56586e-22)
(-0.0244864 -0.00084909 0)
(0.131223 -0.186401 -5.76533e-21)
(-0.150136 -0.226961 9.82749e-21)
(-0.000619184 -0.172998 1.67242e-22)
(-0.00342855 -0.137469 0)
(0.000954984 -0.179213 3.94843e-21)
(-0.000664103 -0.186337 -2.87809e-21)
(0.000625353 -0.0970319 0)
(0.00241486 -0.148317 -1.02843e-21)
(0.0909754 -0.000121728 -3.84591e-23)
(0.357836 -0.00326456 -2.0955e-21)
(-0.189028 -0.00314943 -2.14091e-21)
(-0.101901 -0.00017805 -6.25796e-22)
(-0.151644 0.00168136 5.32867e-22)
(-0.189764 -0.00175636 0)
(0.267639 -0.0533249 -6.96173e-21)
(0.0263754 -0.166608 -6.40574e-21)
(-0.0150108 -0.173311 0)
(-0.0192395 -0.143801 0)
(0.131361 -0.00836365 -3.06327e-21)
(0.38316 -0.0157355 2.61087e-21)
(0.128933 -0.0594227 1.15831e-20)
(-0.0540548 -0.212805 0)
(-0.112197 -0.219809 9.19459e-21)
(-0.0350491 -0.250746 1.60225e-21)
(-0.147577 -0.306094 -2.59642e-21)
(-0.0665416 -0.195531 -1.80298e-23)
(-0.0153808 -0.183518 -3.8379e-21)
(0.000210827 -0.17801 1.65009e-21)
(-0.00636365 -0.180809 6.07317e-21)
(0.00117437 -0.10671 -3.64512e-21)
(0.00015739 -0.145248 2.36683e-21)
(-0.0479219 -0.0138279 2.45577e-21)
(-0.169385 0.00266196 3.73794e-21)
(-0.164815 -0.00565774 -3.37346e-21)
(-0.143887 7.09746e-05 2.4879e-22)
(-0.174279 -0.000250821 0)
(-0.0616569 -0.0658535 -3.84541e-21)
(-0.147687 -0.173654 -2.63116e-21)
(-0.044674 -0.175858 -6.38867e-21)
(-0.0270798 -0.177148 7.55009e-22)
(-0.126365 -0.0150681 0)
(-0.114881 -0.028624 -9.97054e-22)
(-0.130301 -0.173506 -6.7451e-21)
(-0.0889211 -0.178281 8.70802e-21)
(-0.0734764 -0.131084 6.39505e-21)
(-0.0510681 -0.140295 0)
(-0.00744749 -0.143661 0)
(-0.017569 -0.147973 -2.51028e-21)
(-0.00140212 -0.0992734 0)
(-0.00755868 -0.121872 0)
(-0.186498 0.000122412 2.82187e-21)
(-0.177043 -0.00531075 -5.44352e-21)
(-0.13661 0.00214881 -2.61903e-22)
(-0.168415 -0.00295497 -1.59655e-21)
(-0.155218 -0.0198182 5.1663e-21)
(-0.147633 -0.074287 -4.46188e-21)
(-0.0183619 -0.117647 1.505e-21)
(-0.0341604 -0.11647 3.62302e-21)
(-0.173424 0.00442287 4.4616e-21)
(-0.1555 0.00194366 -1.78856e-22)
(-0.0429299 -0.0654209 -8.00968e-21)
(-0.0769105 -0.0786308 3.85607e-22)
(-0.109519 -0.0626784 1.41767e-21)
(-0.00735677 -0.084085 0)
(-0.00803437 -0.0946614 -2.74651e-21)
(-0.137211 -0.0045577 -2.16306e-21)
(-0.1579 0.00805742 1.53813e-21)
(-0.0879542 0.0166495 1.42689e-21)
(-0.00658644 -0.0285001 0)
(-0.03401 -0.021614 3.56602e-21)
(-0.10234 0.0107568 1.60376e-22)
(-0.0931722 -0.00935923 0)
(0.000154822 -0.00962562 0)
(-0.00109553 -0.0231266 0)
(-0.0612005 0.0066519 -3.74765e-21)
(-0.0225741 0.00111858 2.94955e-21)
)
;

boundaryField
{
    movingWall
    {
        type            fixedValue;
        value           uniform (1 0 0);
    }
    fixedWalls
    {
        type            noSlip;
    }
    frontAndBack
    {
        type            empty;
    }
    defaultFaces
    {
        type            empty;
    }
}


// ************************************************************************* //
