/*--------------------------------*- C++ -*----------------------------------*\
  =========                 |
  \\      /  F ield         | OpenFOAM: The Open Source CFD Toolbox
   \\    /   O peration     | Website:  https://openfoam.org
    \\  /    A nd           | Version:  8
     \\/     M anipulation  |
\*---------------------------------------------------------------------------*/
FoamFile
{
    version     2.0;
    format      ascii;
    class       volScalarField;
    location    "3000";
    object      k;
}
// * * * * * * * * * * * * * * * * * * * * * * * * * * * * * * * * * * * * * //

dimensions      [0 2 -2 0 0 0 0];

internalField   nonuniform List<scalar> 
4109
(
0.0294943
0.0310431
0.0297417
0.0310131
0.0317424
0.0314662
0.0319627
0.030149
0.0330109
0.0325452
0.0325709
0.0333187
0.0298539
0.0316906
0.0324089
0.0337109
0.0334959
0.03351
0.0338681
0.0325537
0.0298961
0.0313772
0.0314084
0.0345923
0.0346237
0.0350342
0.0295899
0.0316269
0.0298774
0.0348557
0.0335083
0.0328099
0.0313514
0.0312918
0.0322218
0.0351654
0.0350532
0.0361743
0.0318922
0.0298489
0.0315745
0.03177
0.0302766
0.0355139
0.0341217
0.0955
0.0476975
0.0334849
0.0329026
0.0312278
0.0322423
0.0358539
0.0366372
0.0379046
0.0336096
0.0317967
0.0293665
0.0318968
0.0323663
0.0331445
0.0328783
0.121504
0.0367272
0.0351031
0.0344442
0.0413686
0.0870564
0.0337479
0.0327674
0.0324779
0.0393814
0.0373379
0.0425474
0.0413715
0.0411864
0.0341546
0.0340536
0.0326716
0.0311607
0.0328947
0.0325822
0.0329289
0.0334803
0.0336145
0.0384349
0.0452505
0.10014
0.131038
0.132409
0.0379105
0.0375049
0.0358032
0.0351128
0.0345493
0.0379186
0.0665848
0.033731
0.032553
0.0427003
0.0410166
0.0398859
0.0429949
0.043713
0.0432582
0.0434024
0.0352868
0.0347658
0.0339326
0.0321073
0.0341319
0.038844
0.0333685
0.0338816
0.0341181
0.0346741
0.138194
0.0527425
0.0664502
0.089329
0.14002
0.137569
0.0432828
0.0397092
0.0385823
0.036838
0.0361073
0.0354207
0.0344089
0.0669137
0.0343767
0.033823
0.043123
0.0417124
0.0448116
0.0440366
0.0455689
0.0443332
0.035968
0.0356532
0.0355731
0.0337214
0.0348152
0.0399901
0.0339472
0.0345554
0.0350241
0.0352688
0.12485
0.0734926
0.140778
0.0934783
0.143832
0.0504019
0.0405643
0.0394826
0.0376552
0.0368704
0.0361797
0.0354503
0.0343711
0.0614681
0.0330963
0.0426388
0.0412535
0.0456743
0.0437598
0.046447
0.0468461
0.0476455
0.0371339
0.0366138
0.0363304
0.0345557
0.0358001
0.0412144
0.0347743
0.0354559
0.0356977
0.0363703
0.0857443
0.156857
0.0884669
0.147535
0.147759
0.0511665
0.038783
0.0397309
0.0378945
0.0361463
0.0370806
0.0356197
0.067307
0.0340211
0.0409557
0.0420216
0.0451887
0.0433404
0.0464316
0.0480914
0.0477229
0.0507254
0.0379034
0.0376177
0.0376497
0.0361746
0.0360478
0.0414347
0.035504
0.0361264
0.0367111
0.0370908
0.0883122
0.158459
0.154126
0.0931483
0.157217
0.050779
0.0388934
0.0400826
0.0375246
0.0364906
0.0688103
0.0349001
0.0411787
0.0424252
0.0445454
0.0436488
0.0459791
0.0480246
0.0491898
0.0511371
0.053491
0.03918
0.0385743
0.0383979
0.0372316
0.0369125
0.0424624
0.0370112
0.0362537
0.0400884
0.0375824
0.0382753
0.084901
0.16645
0.096791
0.161542
0.16343
0.0516327
0.0392031
0.0399782
0.0378983
0.0722199
0.0353611
0.0415114
0.0424202
0.0449574
0.0439934
0.0463103
0.0473383
0.0495491
0.0514384
0.0529531
0.0570317
0.0401947
0.0393394
0.0387302
0.0410629
0.0372225
0.0428836
0.0374982
0.0414014
0.0391362
0.0387238
0.173591
0.0846263
0.168899
0.100559
0.173556
0.0522222
0.178178
0.0390003
0.0403526
0.0738823
0.0361637
0.0414869
0.0426744
0.0450577
0.0440033
0.0466197
0.0476818
0.0489256
0.0514043
0.0533722
0.0562288
0.0566063
0.0607034
0.0393255
0.0407661
0.0390696
0.0422313
0.042458
0.0379197
0.0437171
0.0391343
0.0404115
0.0397641
0.0849799
0.181524
0.175605
0.0991216
0.179873
0.0529414
0.192185
0.184677
0.201925
0.165711
0.185362
0.156429
0.0883335
0.037075
0.0403175
0.0423365
0.043217
0.0439445
0.0454341
0.0467571
0.0477076
0.0491797
0.0578432
0.0504672
0.0532129
0.0559857
0.0613238
0.0648614
0.0632742
0.0693733
0.0416362
0.0411542
0.0434469
0.0438745
0.0414032
0.0392329
0.0452238
0.0398999
0.0409902
0.0875003
0.194273
0.18104
0.05287
0.291805
0.259642
0.201859
0.172462
0.195364
0.221414
0.0754763
0.0759825
0.0811417
0.159978
0.149359
0.151417
0.148046
0.159317
0.150567
0.0387244
0.0452359
0.0452816
0.0459869
0.0606697
0.0470051
0.0479489
0.0493293
0.0507211
0.0577031
0.0522391
0.0552907
0.0651246
0.0617056
0.0681428
0.0678822
0.0765104
0.0808355
0.0429087
0.0436708
0.0450706
0.0450186
0.0427835
0.0421231
0.0402972
0.0449218
0.0414816
0.0915221
0.218414
0.302446
0.258241
0.177273
0.194673
0.221846
0.0795141
0.0814118
0.0869646
0.0826626
0.085638
0.132775
0.139184
0.139541
0.147218
0.160072
0.240393
0.119263
0.0441219
0.0474637
0.0471607
0.0600608
0.0611583
0.0491738
0.0491162
0.0506094
0.0523905
0.05714
0.0540081
0.0657927
0.0637523
0.0692208
0.0721347
0.0768433
0.0786503
0.0456585
0.0449447
0.0423631
0.0475729
0.0465223
0.0439286
0.0434544
0.0497167
0.0429092
0.0417909
0.0498521
0.0973138
0.294377
0.324317
0.260233
0.176716
0.19758
0.225335
0.0820357
0.0895074
0.0979475
0.087682
0.0919248
0.122685
0.10927
0.0871524
0.0904033
0.129305
0.137202
0.147586
0.158635
0.257677
0.211413
0.0650513
0.0491773
0.0496753
0.0593154
0.0612047
0.0502859
0.0506705
0.0523627
0.0541236
0.0560351
0.0663928
0.0639626
0.0696927
0.0728347
0.0749041
0.0782349
0.0475254
0.0496679
0.0476117
0.0438727
0.043934
0.0454458
0.0467594
0.0447534
0.0509279
0.0485202
0.169932
0.222072
0.0434372
0.0412715
0.304913
0.257193
0.255513
0.326934
0.265677
0.17739
0.199507
0.230036
0.0861815
0.0808368
0.0934813
0.0994577
0.0972087
0.107371
0.118065
0.0920539
0.0961632
0.127289
0.134558
0.147115
0.162411
0.318273
0.27343
0.319574
0.064949
0.0524504
0.0511495
0.0581017
0.0604347
0.0523506
0.0522429
0.0538896
0.0560982
0.0628431
0.0655458
0.0683769
0.0715453
0.07466
0.0773511
0.0791724
0.05073
0.0507087
0.0453181
0.0450457
0.0462648
0.0476403
0.0493121
0.0529671
0.0500676
0.0451154
0.051084
0.0557055
0.31422
0.260681
0.243283
0.192409
0.191702
0.331402
0.261553
0.17987
0.190323
0.209855
0.0906919
0.0845432
0.0826236
0.117015
0.102104
0.106039
0.0975871
0.101434
0.125649
0.133304
0.149907
0.164021
0.0870368
0.350414
0.329271
0.352872
0.0777269
0.0551244
0.0538543
0.0581752
0.0604453
0.0540305
0.0539129
0.0560533
0.0628485
0.0654781
0.0682847
0.0713625
0.0739964
0.0759228
0.0790993
0.0798323
0.0532129
0.054194
0.0469656
0.0469711
0.0482613
0.0496738
0.0508926
0.0548005
0.0517955
0.0508242
0.046915
0.0479021
0.311106
0.166955
0.230566
0.222495
0.192826
0.334703
0.262779
0.175032
0.195203
0.215467
0.241861
0.0956993
0.0839854
0.0893884
0.0840318
0.103494
0.114226
0.108682
0.12574
0.138973
0.152621
0.160453
0.0879292
0.386894
0.371461
0.405577
0.0808995
0.0590784
0.0559635
0.0604228
0.0579751
0.0560394
0.0561971
0.062665
0.0653808
0.0709957
0.0679701
0.0733245
0.0758573
0.0759436
0.0787373
0.0821518
0.056871
0.056096
0.0573878
0.0489199
0.0487301
0.0508966
0.0524992
0.0535602
0.0530926
0.0487641
0.0504352
0.316673
0.255876
0.144123
0.150031
0.205882
0.197877
0.174268
0.271596
0.331827
0.178324
0.194489
0.211276
0.236283
0.101053
0.0855576
0.0936483
0.0868778
0.0896802
0.110237
0.114315
0.106576
0.127834
0.140724
0.150769
0.164765
0.114252
0.425772
0.42624
0.439796
0.092702
0.0628283
0.0580679
0.0606818
0.0582861
0.0580182
0.06324
0.0653627
0.0704025
0.0681896
0.0741608
0.0760721
0.0781835
0.0808136
0.083856
0.060124
0.0598697
0.0596107
0.0555849
0.0509801
0.0510868
0.0525645
0.0534746
0.0544421
0.0507346
0.0545772
0.332287
0.280528
0.242757
0.220205
0.125446
0.133328
0.147221
0.189091
0.178081
0.162938
0.112964
0.273096
0.326601
0.331985
0.177865
0.194801
0.225571
0.211583
0.0993951
0.0881184
0.0924775
0.089379
0.112206
0.119609
0.105151
0.165273
0.130088
0.137725
0.152394
0.11315
0.473132
0.48226
0.505343
0.05993
0.0994815
0.0645917
0.0611476
0.0607656
0.066695
0.0651655
0.0716398
0.0720622
0.0693426
0.075006
0.0783802
0.0814368
0.0646472
0.0625503
0.0620266
0.0576443
0.0568252
0.0527314
0.0522501
0.0541413
0.0559709
0.0525819
0.0562099
0.0689927
0.0741642
0.276864
0.245261
0.214982
0.196168
0.120339
0.135278
0.150085
0.170769
0.160963
0.108479
0.0999264
0.0926451
0.0825023
0.0790683
0.316712
0.265745
0.316411
0.271536
0.166291
0.179113
0.192034
0.220965
0.0985759
0.0905874
0.0934059
0.120369
0.112729
0.105503
0.102385
0.152049
0.151899
0.129711
0.141208
0.136841
0.561921
0.529983
0.526467
0.0666883
0.101146
0.0631768
0.0643506
0.0721649
0.0683713
0.0746815
0.0773103
0.0802708
0.0648863
0.0643759
0.059975
0.0586213
0.0573938
0.0549058
0.0544396
0.0561992
0.060779
0.0546783
0.0761813
0.0696918
0.0729739
0.240222
0.219898
0.193322
0.175527
0.120687
0.137632
0.147274
0.15429
0.11371
0.0996839
0.102293
0.0776867
0.0909418
0.0802071
0.0844412
0.270056
0.251219
0.237679
0.216712
0.160549
0.174382
0.199627
0.149446
0.0968162
0.0934655
0.117314
0.108098
0.113227
0.106384
0.100771
0.142453
0.14388
0.130359
0.109738
0.615696
0.595877
0.58599
0.0834978
0.106005
0.0673846
0.061132
0.0717544
0.0755902
0.0788872
0.0673075
0.0623843
0.0612879
0.0601526
0.0581436
0.0566672
0.0559436
0.058622
0.0562865
0.0741112
0.0703321
0.211557
0.215162
0.197772
0.17387
0.157331
0.127472
0.135488
0.140605
0.116536
0.110487
0.102395
0.078811
0.0817585
0.0956394
0.0849412
0.0893226
0.224162
0.214856
0.211725
0.196732
0.140615
0.162656
0.171076
0.151435
0.194424
0.0963315
0.12077
0.11463
0.111044
0.10422
0.0994698
0.123612
0.130032
0.131213
0.115775
0.730856
0.687017
0.732785
0.133449
0.0708371
0.0790724
0.0747127
0.0781534
0.0650864
0.063498
0.0619533
0.0605186
0.0588307
0.0584205
0.0597696
0.058753
0.0741442
0.0679301
0.194005
0.195429
0.176158
0.155573
0.1426
0.125506
0.129216
0.116374
0.108725
0.101897
0.0777907
0.0812213
0.0959921
0.0856277
0.0902391
0.196333
0.189997
0.172801
0.126195
0.132678
0.142127
0.150054
0.175249
0.112162
0.107061
0.101981
0.117577
0.11505
0.122635
0.126157
0.855438
1.17253
0.321284
0.0750201
0.0880378
0.0781144
0.0665036
0.0650156
0.0628517
0.0610203
0.0603375
0.062202
0.0711032
0.0691893
0.175154
0.173412
0.156032
0.141084
0.130885
0.119481
0.111175
0.103882
0.0975483
0.0744834
0.0782483
0.0918788
0.0823183
0.0868735
0.171672
0.173263
0.15635
0.127904
0.133963
0.140934
0.12328
0.155992
0.108651
0.104317
0.112294
0.113359
0.118378
0.198956
1.66902
1.61403
0.579423
0.0801048
0.122175
0.0672455
0.0655821
0.0627095
0.0633864
0.0690099
0.0726282
0.0706923
0.156781
0.156541
0.14143
0.129762
0.12095
0.112623
0.105219
0.0989907
0.0758742
0.079843
0.0932561
0.0837555
0.0884257
0.154182
0.154669
0.142085
0.125249
0.129737
0.118804
0.141626
0.106208
0.10896
0.109898
0.112766
4.05674
0.331459
2.3333
2.47956
1.16867
4.49694
0.0682296
0.0658028
0.0670722
0.066807
0.0772268
0.0734344
0.0713263
0.139985
0.140841
0.130337
0.120652
0.112196
0.10549
0.0990715
0.0773421
0.0806352
0.0940963
0.08502
0.088967
0.13751
0.137775
0.13022
0.119148
0.112973
0.127975
0.130351
3.27179
3.60144
0.636032
3.59965
3.58058
4.88521
3.96694
6.43312
0.0691853
0.0659337
0.0704061
0.0706076
0.0943532
0.0744883
0.0709335
0.13114
0.130744
0.120701
0.112466
0.105464
0.0995873
0.0780783
0.0817625
0.094423
0.089892
0.0856633
0.129611
0.122246
0.113346
0.120803
0.12326
0.122457
2.21309
2.86056
3.18073
1.20763
4.51367
3.48144
6.20002
6.25878
0.070938
0.0705044
0.0754152
0.135011
0.075358
0.0715699
0.11844
0.118977
0.11166
0.104913
0.0994222
0.0779733
0.0825347
0.094641
0.0904024
0.0862712
0.122343
0.115437
0.116253
0.11843
0.116892
0.116214
1.93738
1.80996
2.49654
2.78418
3.44202
5.86286
4.10775
3.02876
5.86366
6.05924
0.0731589
0.0746835
0.0803161
0.0744929
0.0754619
0.0775514
0.114041
0.106965
0.102067
0.0968118
0.0814784
0.0818165
0.093736
0.0890157
0.0867671
0.115173
0.112629
0.113614
0.111901
0.110957
1.52355
1.47784
2.16397
2.39523
6.31052
2.9805
5.59512
5.42177
3.68313
2.58979
5.49511
5.85199
0.0749063
0.0774211
0.0775026
0.0788066
0.0819799
0.109998
0.105375
0.101391
0.0970385
0.0836362
0.0848375
0.0936749
0.090298
0.0875761
0.109164
0.107279
0.105299
6.14514
1.19365
1.20127
1.84522
1.98302
5.89527
2.58122
5.25529
5.15504
4.96523
3.23828
2.13134
5.09635
5.64048
0.0772134
0.0780771
0.0802054
0.0816228
0.104231
0.10242
0.0998778
0.0967541
0.084173
0.0862863
0.0938317
0.0910668
0.0885802
6.73642
5.57102
0.933993
0.961458
1.51144
1.46825
5.43159
2.22554
5.10361
4.80229
4.70479
4.49108
2.74408
1.5744
4.65434
5.42212
7.73323
6.19689
5.00103
0.725774
0.737742
1.09824
0.599038
4.94315
1.88813
4.96091
4.68339
4.35588
4.24504
3.98869
2.11203
0.670525
4.12964
5.19119
8.44024
7.33104
5.61355
4.43747
0.548964
0.491931
0.398207
4.4291
1.55354
3.49763
4.6509
4.26081
3.91298
3.76513
3.42506
1.04656
3.41829
9.7541
7.95976
6.86668
4.99689
3.87211
0.367077
0.127298
3.85887
1.36372
2.74129
3.0517
4.32775
3.83815
3.46211
3.23639
2.71281
2.17247
11.2507
8.99382
7.49159
6.33894
4.35515
3.27645
0.083226
3.12198
1.42687
2.37744
2.63004
3.989
3.40474
2.97479
2.57828
1.51229
11.9113
11.2495
8.11768
6.99988
5.69175
3.67427
2.56194
1.71892
1.3082
1.27815
2.05768
2.21939
3.62338
2.93466
2.37897
1.48405
12.1577
11.6027
11.0362
7.17317
6.48484
4.915
2.88598
1.35716
1.48533
1.1987
1.14333
1.76381
1.80858
3.20539
2.35878
1.39291
8.17507
12.1527
11.0715
10.6059
6.18298
5.89777
3.95886
1.65547
1.59759
1.38047
1.09208
1.01809
1.48098
1.38871
2.66744
1.41474
6.91287
8.05333
11.8924
10.3363
9.95372
5.15172
5.09639
2.58094
1.60919
1.48252
1.27299
0.984468
0.89589
1.19418
0.949137
1.76068
6.28391
6.61793
7.70372
11.424
9.48964
9.03253
4.30007
3.43163
1.51209
1.49313
1.36502
1.15979
0.87046
0.763202
0.869321
0.468752
6.30063
6.10087
6.19791
7.18238
10.7365
8.57179
7.69038
3.14201
1.33094
1.40527
1.37476
1.24211
1.03575
0.740076
0.587385
0.40377
6.85547
6.09917
5.78582
5.70601
6.53352
9.79495
7.57611
5.3606
1.42723
1.21902
1.29607
1.25104
1.10837
0.889712
0.566444
0.262972
8.06991
6.54594
5.77336
5.38106
5.15979
5.7656
8.3698
6.01979
2.64729
1.27944
1.11041
1.18127
1.11654
0.952077
0.691103
0.250252
11.9825
7.93729
6.12416
5.36345
4.90202
4.54666
4.85336
5.79934
3.54045
2.30473
1.14511
1.00098
1.05553
0.959439
0.7415
0.334381
11.734
11.9966
7.5879
5.63272
4.88225
4.34115
3.82103
3.80684
4.95582
3.08111
1.99875
1.0201
0.885028
0.907578
0.747941
0.371145
11.071
11.428
11.7403
7.08315
5.08505
4.31996
3.65513
2.88962
5.13994
4.64469
2.64876
1.71439
0.897677
0.752538
0.706805
0.377029
9.77068
11.06
10.8599
11.2724
6.48473
4.47058
3.63184
2.76453
5.23704
4.71762
4.3229
2.23244
1.43932
0.764134
0.576797
0.348454
8.42172
8.98005
10.8035
10.0089
10.5414
5.80451
3.73821
2.73045
5.56623
4.781
4.29232
3.98432
1.81872
1.15986
0.587302
0.259313
7.78201
7.95785
8.07764
10.2737
8.93589
9.41642
4.99617
2.78453
5.85977
5.12666
4.33438
3.86743
3.61868
1.39779
0.842427
0.26276
6.75377
7.37549
7.52459
7.11514
9.44998
7.62415
7.54238
3.87742
6.65225
6.26607
5.42433
4.67828
3.89335
3.43168
3.19921
0.951843
0.383031
6.13652
6.21809
6.90138
7.08037
6.09817
8.27058
6.08195
5.09187
5.0824
6.4425
5.93841
4.97202
4.22042
3.44425
2.95756
2.65535
0.45612
6.24896
5.56159
5.63691
6.35891
6.58576
5.07193
6.73982
3.75107
3.40937
4.53498
4.6858
6.22496
5.56956
4.49939
3.74169
2.95742
2.37282
1.72606
5.84676
4.99034
5.02003
5.72184
6.01885
4.29324
5.87779
2.94526
2.06766
4.31052
4.02625
4.25853
6.00332
5.16713
3.9969
3.21268
2.36046
1.40387
2.44233
3.56284
5.39516
4.42611
4.37665
4.94931
5.22857
3.38315
2.53831
1.63355
3.82465
3.54581
3.81497
5.77798
4.71752
3.43161
2.55246
1.35595
1.98644
3.13542
4.91544
3.86123
3.69319
3.99731
3.51366
2.18641
1.28412
3.3776
3.09105
3.34979
5.54644
4.18044
2.71253
1.43978
1.61974
2.74896
4.409
3.26652
2.90139
2.62681
1.85779
1.00833
2.95781
2.64634
2.83224
5.30106
3.44659
1.48566
1.31472
2.39055
3.84383
2.55489
1.67948
1.556
0.786226
2.54666
2.17957
2.16832
2.14599
1.05074
2.0447
3.11368
1.35934
1.36856
0.596196
2.11097
1.60592
1.04417
0.805814
1.68133
1.73081
0.399641
1.56803
0.662553
0.539068
1.23213
0.0959316
0.646676
0.148623
0.474837
0.0862871
0.084341
0.0856279
0.0856375
0.0870847
0.0868568
0.0875062
0.0875386
0.0882495
0.0827381
0.0838419
0.0842684
0.0854681
0.0857856
0.086933
0.0875458
0.0918811
0.093312
0.0946467
0.0968898
0.0983341
0.0884446
0.0892436
0.0882732
0.0884322
0.0887418
0.0883793
0.0896063
0.0893371
0.0903769
0.101017
0.10218
0.0814157
0.0825202
0.0831421
0.0842319
0.0848572
0.0858043
0.0867988
0.0878894
0.0888482
0.0898277
0.0909298
0.0923037
0.0941183
0.0955477
0.098639
0.100126
0.105622
0.106375
0.0902313
0.0911045
0.0921597
0.0931226
0.0944968
0.0959444
0.0983188
0.089636
0.0900937
0.0896198
0.0896329
0.0905178
0.0898748
0.0918757
0.0913561
0.0927016
0.0981485
0.099964
0.110624
0.112304
0.104859
0.104609
0.109696
0.0804113
0.0814371
0.0823018
0.0833109
0.0842609
0.08526
0.0864634
0.0873951
0.0891257
0.090211
0.0916798
0.0929483
0.0968958
0.0983242
0.101517
0.102626
0.107162
0.108422
0.113572
0.115722
0.122094
0.122223
0.129201
0.0910777
0.091802
0.0927628
0.0937809
0.0952505
0.0908135
0.0910863
0.0911649
0.090853
0.0924218
0.0916466
0.09512
0.094064
0.0933456
0.0956633
0.0993148
0.0995468
0.104586
0.106209
0.12583
0.113803
0.12149
0.110569
0.113475
0.080009
0.0809386
0.0820812
0.0830782
0.0843417
0.0852565
0.0867446
0.0876457
0.0892591
0.0902184
0.0924599
0.0945732
0.102682
0.0998821
0.106172
0.108637
0.113124
0.114612
0.119495
0.129232
0.134897
0.135745
0.149475
0.152102
0.145823
0.154354
0.154915
0.196061
0.0920556
0.092814
0.0936348
0.094589
0.097469
0.096225
0.0920966
0.092133
0.0927791
0.0923017
0.0952382
0.0942257
0.0934811
0.0996736
0.0983496
0.0959518
0.0983948
0.100292
0.248573
0.214744
0.307415
0.104698
0.105008
0.110539
0.11278
0.127426
0.129539
0.165432
0.144675
0.121953
0.128009
0.0807281
0.0813198
0.0829415
0.0835444
0.0853465
0.0858763
0.0878862
0.0886102
0.0917971
0.0910505
0.0953847
0.0967165
0.101617
0.10393
0.113418
0.111615
0.120883
0.129706
0.136694
0.137486
0.14932
0.713897
0.701919
0.493471
0.162308
0.171126
0.186397
0.192696
0.20253
0.217822
0.218405
0.490986
0.292782
6.43631
7.00286
6.85379
6.53982
7.16291
7.18488
6.95588
6.58253
0.093196
0.0935575
0.0945592
0.095494
0.0971855
0.0961145
0.093479
0.0932972
0.0952796
0.0944605
0.0939421
0.1019
0.100516
0.0992004
0.0980619
0.0967065
0.0996332
0.105656
0.10157
0.104958
6.03513
5.06763
1.86163
1.31886
0.772309
0.174925
0.249644
0.305587
0.56456
0.112778
0.113149
0.114133
0.113685
0.125823
0.127933
0.139766
0.136103
0.164222
6.22854
6.91952
4.54327
7.14331
7.20513
7.18978
5.44484
6.0781
6.16708
7.17371
0.0869456
0.084529
0.0886636
0.0873079
0.0910563
0.0900482
0.0936681
0.0934958
0.0966235
0.096398
0.100461
0.100418
0.108232
0.111129
0.116739
0.11573
0.121466
0.146911
0.124644
0.159761
0.211171
0.203537
0.247637
0.248788
0.243978
1.27963
1.7859
3.41947
2.48461
1.29541
0.99623
0.356722
0.394785
0.49886
0.505053
1.02119
0.595952
0.579826
3.88617
6.05822
4.96608
5.26887
6.15773
6.68937
6.922
6.9152
4.97635
4.9243
7.1281
7.08209
5.57502
5.79436
6.38193
7.01933
6.59938
6.96436
0.0944607
0.0946746
0.0955555
0.096852
0.0972286
0.0962144
0.0957139
0.0950039
0.0946379
0.103986
0.102515
0.101115
0.0999383
0.0988844
0.0978917
0.0975103
0.100507
0.100884
0.104794
0.105297
0.109673
0.104602
2.6827
4.52637
3.52946
5.91309
4.61513
1.67586
2.70538
1.43435
0.752745
0.113125
0.609381
0.200307
0.348089
0.25598
0.12336
0.120246
0.128936
0.124315
0.13223
0.130981
0.149182
0.143264
0.200523
6.24575
7.08696
5.94599
4.28926
4.70192
3.65253
7.32259
7.42599
7.24625
5.99552
4.52795
5.61443
0.188885
0.103196
2.10983
0.646744
0.135763
0.105385
0.124276
0.105203
0.119343
0.104635
0.117827
0.112392
0.109814
0.121439
0.120452
0.142997
0.176018
0.165012
0.201406
0.283313
0.252606
0.336713
0.661751
0.377503
0.40754
0.903156
1.02971
0.552089
0.485758
0.655841
0.633564
0.798612
0.799437
1.92804
2.54626
3.68218
2.97754
2.08512
1.51536
1.16515
1.16944
1.75728
1.31078
1.42934
4.9379
4.32133
5.15409
6.16894
5.86727
6.84923
6.64527
7.1048
7.01111
7.05362
5.22002
5.77658
6.98943
7.00354
6.84509
6.81339
6.51158
0.097686
0.0956965
0.0957571
0.096603
0.0971998
0.0964498
0.0961673
0.0983387
0.106113
0.104606
0.103011
0.101721
0.100582
0.0994378
0.0988005
0.0978643
0.108095
0.10574
0.107976
0.110326
0.108803
0.110229
0.101437
0.101335
0.101775
0.103442
0.114013
0.108235
0.10967
0.105506
4.62856
4.09826
3.03501
0.983497
2.53457
1.74081
0.119513
0.13335
0.131746
1.09799
0.262759
0.560959
0.363843
0.144631
0.139982
0.152535
0.148555
0.176026
0.165156
0.276761
4.41536
6.61332
7.22196
6.23312
5.3075
7.45468
3.35763
3.90581
2.72665
7.66027
7.4482
6.66545
5.50149
4.00013
4.7389
4.74092
1.19311
0.340557
4.5665
3.58407
0.686515
0.335003
0.521605
0.254486
0.401558
0.216283
0.342373
0.182548
0.247557
0.445951
0.779979
0.555156
0.962866
0.620978
0.758346
1.34628
1.67195
1.83002
1.18522
1.19734
1.86082
2.09373
1.24448
1.37523
1.67283
1.58384
1.95953
1.6742
3.9487
2.76579
3.31069
3.14277
2.68333
2.53647
2.90843
2.18981
2.70099
5.38806
4.52392
6.74355
6.05902
6.36799
7.07453
6.9723
6.92172
7.00121
6.52593
6.61375
0.10997
0.108458
0.0970663
0.0982452
0.0975382
0.0969995
0.097014
0.0985756
0.0996997
0.104782
0.102922
0.102217
0.10075
0.100236
0.0991504
0.0988472
0.0980961
0.106734
0.104837
0.105984
0.107102
0.105414
0.106762
0.101126
0.101723
0.103035
0.105661
0.120816
0.113343
0.114781
0.108676
1.79862
2.65196
3.52759
0.12959
0.142654
0.141322
0.163833
0.159017
0.783975
1.83886
0.360283
0.709373
0.199119
0.182818
0.274043
0.236363
0.36963
3.59554
5.12837
4.76245
6.878
6.98496
7.36236
7.79237
7.71799
2.65543
3.60382
7.40705
6.4707
5.7263
4.05212
4.76341
4.77064
2.08613
4.79457
5.11642
5.63862
3.79036
2.39491
5.7865
6.27725
3.38025
1.73727
2.6209
1.23134
2.01879
1.02327
1.35986
1.58043
1.20708
2.18775
1.79526
1.73114
1.70387
1.82584
2.77657
2.87097
2.99909
3.316
2.53537
2.3738
3.40249
3.59094
2.57447
2.82562
3.30446
3.11536
3.49662
4.70691
4.18875
4.54776
3.71736
4.26337
4.23135
3.98981
4.41051
6.37085
5.70603
6.97015
6.81778
6.91165
6.92587
6.35219
6.45644
0.111827
0.109318
0.107507
0.106011
0.0985781
0.0984299
0.0987405
0.0995348
0.100677
0.103867
0.102439
0.101764
0.100652
0.100238
0.0994199
0.0994641
0.103702
0.104573
0.103088
0.104272
0.103446
0.104478
0.102083
0.10217
0.104003
0.109969
0.105701
0.102616
0.130502
0.121546
0.122575
0.115444
0.138645
3.15734
2.2973
0.154763
0.151509
0.184778
0.17959
0.263476
0.312998
0.249712
0.790874
2.07674
0.956265
0.499574
0.416868
0.863408
5.07791
4.23246
7.38282
6.75882
7.96492
7.84924
7.56512
7.28705
6.882
6.53671
0.210583
0.705379
4.68025
5.55238
1.2823
3.89437
5.77808
5.47013
6.30832
6.0584
5.52899
6.20882
5.92869
5.31242
5.3736
3.55652
4.28995
3.29621
2.92008
2.89798
4.23715
3.34013
4.18603
3.51513
3.6937
4.28958
4.65803
4.60089
4.71078
4.25133
4.11738
3.76075
4.91972
5.09256
4.25934
4.44533
5.1151
5.0104
5.81476
6.07963
5.63438
5.50573
5.80964
5.48523
5.69666
6.82097
6.70114
6.68362
6.72466
6.07271
6.17617
0.0883049
0.109395
0.112428
0.111046
0.109207
0.106993
0.105569
0.104043
0.0996426
0.0998208
0.100168
0.100277
0.102643
0.102369
0.101658
0.10091
0.10042
0.10006
0.101264
0.102194
0.101461
0.102485
0.102115
0.103026
0.102245
0.106256
0.107071
0.116204
0.105187
0.10673
0.142514
0.12639
0.130067
0.117148
0.159408
0.186574
0.168154
4.47193
2.79411
0.25061
0.210421
0.491336
0.409955
1.21277
1.04781
0.887391
2.32621
3.05985
1.66107
7.34211
6.22805
8.09831
8.21498
7.96133
7.56319
7.10422
6.7454
0.148077
0.453033
4.10851
6.35619
0.844031
2.38461
6.3367
6.15555
5.94289
6.5458
6.07198
5.58295
6.94264
6.23695
6.87151
6.45792
6.04485
6.03681
5.64062
4.70224
4.75385
5.93717
5.41752
5.1683
5.39453
5.61138
5.49968
5.75633
5.68168
5.63634
5.5824
5.88743
5.13191
5.41426
5.92299
5.91088
5.63847
5.73412
6.03615
6.07612
6.29367
6.22834
6.63621
6.40258
6.38117
6.46173
6.51004
5.76722
5.92021
0.0812855
0.0851355
0.0894969
0.108575
0.111028
0.110167
0.108877
0.108317
0.106996
0.105156
0.102738
0.104171
0.107606
0.108723
0.101444
0.100386
0.0997177
0.0998982
0.100681
0.0999318
0.0998275
0.100273
0.100896
0.100628
0.101576
0.101466
0.102139
0.103059
0.105534
0.108831
0.114502
0.117237
0.110756
0.139054
0.163095
0.125805
0.142475
0.177298
0.231572
0.20091
0.251677
0.390202
0.285289
6.41052
5.3527
1.1226
0.823076
2.53304
1.97942
4.38881
5.803
3.95281
8.41861
8.3692
8.51039
8.03188
7.71017
7.19644
0.133057
0.320109
3.27297
6.21648
0.558976
1.58584
6.09929
6.91296
5.33417
5.50435
6.67877
5.91886
6.84437
6.61166
5.25084
5.7654
6.50729
6.3856
6.50637
6.22908
6.43529
5.79593
5.99382
6.12479
6.1216
5.87705
5.92095
5.76591
5.79612
5.75971
5.65382
5.69982
5.57776
5.42383
5.41703
5.94661
5.93579
5.96737
5.85133
6.00718
5.95807
5.98512
5.86733
5.99532
6.2327
6.29568
6.00668
5.58516
5.75067
0.0798493
0.0815189
0.0836088
0.0882694
0.0916384
0.107717
0.107288
0.106747
0.105892
0.105941
0.101945
0.103819
0.103085
0.104861
0.105327
0.105129
0.104386
0.105593
0.103394
0.103374
0.101401
0.101475
0.103494
0.100556
0.100017
0.100394
0.100161
0.101777
0.10029
0.100536
0.100848
0.101112
0.101414
0.101963
0.102343
0.105701
0.111398
0.107743
0.115561
0.124412
0.122142
0.130398
0.158556
0.182985
0.142474
0.161857
0.211666
0.277853
0.677585
0.612681
0.483254
0.912693
1.83379
1.79508
8.61859
7.78704
4.25374
4.43073
6.75176
7.92087
6.75623
9.19798
8.71965
8.49292
8.05721
0.125678
0.245105
2.48011
5.11477
0.386141
1.08093
5.20515
7.04064
5.6478
5.15754
6.79135
6.34767
5.66373
5.30654
4.96198
4.94022
6.01077
6.12624
5.20827
5.65348
5.40158
5.83879
5.75974
5.79519
5.78945
5.42196
5.4512
5.01485
5.00208
4.89207
5.17016
4.77343
4.6299
4.06471
3.69946
4.36646
4.45182
5.39096
5.81388
5.81701
5.30347
5.40254
5.45388
5.40795
5.0428
5.47735
0.105114
0.0799029
0.0806985
0.0819034
0.0839082
0.0862956
0.0906075
0.094167
0.0809472
0.0809735
0.0825058
0.0822593
0.0844162
0.0837402
0.0994838
0.0998619
0.0976153
0.0980874
0.0956137
0.0962184
0.0934576
0.094258
0.0866421
0.0856735
0.0889928
0.0876983
0.0912484
0.092106
0.0898988
0.104495
0.103983
0.103446
0.103806
0.102818
0.102498
0.103224
0.102315
0.102511
0.101934
0.103083
0.100439
0.100736
0.0985461
0.0988952
0.102416
0.100981
0.10222
0.100842
0.101601
0.101814
0.10161
0.101807
0.102012
0.102695
0.103012
0.103097
0.102796
0.103468
0.109284
0.105131
0.118745
0.112473
0.123769
0.137573
0.132566
0.14895
0.186262
0.235242
0.167967
0.200843
0.291994
0.634987
3.15382
2.39079
3.22793
1.46404
3.14104
5.21348
6.01856
9.54073
9.41469
8.34177
9.47481
8.5382
9.64866
8.86289
0.118918
0.195777
4.60846
1.71755
2.76449
0.285434
0.752082
6.18858
6.87942
5.79495
5.20491
6.58337
6.13323
6.62715
4.77334
4.68339
4.68907
5.27872
5.18847
4.42674
4.66451
4.68001
4.42979
4.85237
4.99541
4.53548
4.47187
4.07642
4.01888
3.53973
3.60959
3.83249
2.86448
2.87756
2.57345
2.58378
3.31416
4.85864
4.73317
3.61414
4.18017
4.02309
0.105301
0.0928737
0.096448
0.0817882
0.0827004
0.0843138
0.0865885
0.0892341
0.0826018
0.0829242
0.0837875
0.083849
0.0852584
0.085176
0.0966907
0.0972926
0.0948326
0.0956539
0.0928282
0.093845
0.090728
0.0920254
0.0870406
0.0866896
0.08879
0.0901223
0.0883492
0.102436
0.101959
0.10172
0.102488
0.102299
0.100005
0.100502
0.100096
0.10115
0.0982451
0.0987094
0.0964144
0.0969365
0.102126
0.10278
0.102459
0.104147
0.10358
0.103977
0.104324
0.103833
0.10464
0.105741
0.104368
0.104615
0.104148
0.112445
0.107893
0.10836
0.126999
0.117305
0.133887
0.156686
0.151364
0.177448
0.208894
0.422127
0.204604
0.275196
0.615111
1.98597
6.16371
6.90136
6.07495
7.31911
3.96669
6.80983
8.48043
9.42387
10.4204
10.1284
10.2249
0.116499
0.146202
0.201182
2.92348
4.90791
1.11632
2.17691
0.444541
5.46932
6.40794
5.35436
4.77199
5.88383
5.50211
6.3378
6.47723
6.05859
5.81057
4.21267
4.36551
4.39346
4.2883
3.94382
4.01382
3.92847
3.81743
3.96299
3.98697
3.62793
3.60146
3.11156
3.19175
2.53067
2.64745
2.09505
2.14647
1.90802
1.82302
3.29265
1.83757
2.80833
4.9407
0.0960205
0.101845
0.0893574
0.0931105
0.0839
0.0852484
0.0871772
0.0845407
0.0849114
0.0854566
0.0855395
0.0866557
0.0866509
0.0947542
0.0953832
0.0931136
0.0938997
0.0913909
0.0922771
0.0897598
0.0908068
0.0882057
0.0892992
0.0879214
0.100931
0.100875
0.100874
0.100672
0.0982255
0.0990551
0.0987761
0.100148
0.0965682
0.0972838
0.0949501
0.0956691
0.102735
0.102125
0.104915
0.103951
0.109267
0.107572
0.110356
0.109466
0.106669
0.107686
0.110605
0.10839
0.106326
0.112145
0.107606
0.107726
0.121198
0.120595
0.139412
0.137162
0.174893
0.171405
0.232817
0.197734
0.3176
0.727561
0.261427
0.399891
1.72665
4.22372
6.45551
9.50443
9.5793
9.57553
9.78212
10.7233
10.6654
10.9665
0.710152
0.106205
0.110541
0.137841
0.181671
0.331483
3.9937
1.61562
2.42639
5.61034
4.4095
4.37392
4.83352
5.62531
6.0434
4.82456
5.30254
6.14287
6.08731
5.61306
5.18763
3.78879
3.97598
3.62141
3.63961
3.52903
3.54845
3.41326
2.95367
3.22991
3.19763
2.44872
2.63799
1.98456
2.15579
1.63662
1.75711
1.49821
1.47358
0.0939458
0.0974005
0.0864646
0.0881754
0.0909405
0.0863
0.0877645
0.0870142
0.0874331
0.0878752
0.0879425
0.093334
0.0942507
0.0916771
0.0929245
0.0903377
0.0914924
0.089036
0.0902304
0.0890403
0.101334
0.0999628
0.100115
0.100505
0.0973037
0.0981384
0.0998361
0.0982541
0.0957119
0.0966617
0.0943775
0.0951852
0.105276
0.104022
0.104051
0.107984
0.106117
0.114917
0.114251
0.113487
0.11583
0.122419
0.119663
0.120138
0.117322
0.116244
0.112356
0.110097
0.120132
0.116749
0.123323
0.146848
0.137027
0.216322
0.216973
0.170909
0.202912
0.311385
0.314464
1.00402
2.03282
0.894398
3.81478
5.78753
7.69128
10.4079
11.7777
11.5468
11.5018
1.49553
2.00931
0.100036
0.539474
1.0269
0.108008
0.112747
0.120817
0.153654
0.195344
0.316013
3.90129
3.1546
5.57904
5.13488
3.91078
4.27553
5.87303
5.97458
4.2893
4.80369
5.75772
5.58942
4.93933
3.37366
3.55622
2.9552
3.10186
3.11386
2.9644
2.52392
2.658
2.0908
2.27475
1.75614
1.89736
1.43176
1.60795
0.096596
0.089078
0.092232
0.0943568
0.0946906
0.0884553
0.0900397
0.0886777
0.0895389
0.0893461
0.089605
0.0927244
0.0938908
0.0916055
0.0925775
0.0904045
0.0914576
0.0903344
0.0943907
0.100275
0.100002
0.101445
0.0992537
0.0981086
0.0970254
0.101699
0.0971246
0.0962067
0.0961251
0.105107
0.103395
0.10693
0.10956
0.109701
0.114816
0.113526
0.123174
0.125331
0.128377