/*--------------------------------*- C++ -*----------------------------------*\
  =========                 |
  \\      /  F ield         | OpenFOAM: The Open Source CFD Toolbox
   \\    /   O peration     | Website:  https://openfoam.org
    \\  /    A nd           | Version:  8
     \\/     M anipulation  |
\*---------------------------------------------------------------------------*/
FoamFile
{
    version     2.0;
    format      ascii;
    class       surfaceScalarField;
    location    "3000";
    object      phi;
}
// * * * * * * * * * * * * * * * * * * * * * * * * * * * * * * * * * * * * * //

dimensions      [0 3 -1 0 0 0 0];

internalField   nonuniform List<scalar> 
6926
(
-1.05308
0.0710304
-0.652858
-0.575153
0.174931
-0.941649
0.0740222
-0.11292
-0.539938
0.0688488
-0.756922
-0.752279
-0.0144388
-0.635251
-0.0481788
0.234424
-1.05806
-0.064882
0.0131677
-0.583537
0.177766
-0.717704
-0.644038
0.466534
-0.586709
0.133342
0.025147
-0.660141
-0.828082
-0.244412
-0.409727
-0.0679184
0.0526744
-0.568293
0.156254
-0.873958
-0.555702
-0.534205
0.000171085
-0.533756
0.257372
-0.680506
-0.165025
-0.767877
-0.57277
-0.794975
-0.217314
-0.210007
0.0233042
-0.381591
-0.191513
-0.574196
-0.122765
-0.751193
-0.896195
0.12969
-0.13117
-0.592823
0.119815
-0.423187
-0.812396
0.0723862
-0.511073
0.000171779
-0.528537
-0.00504808
-0.53411
-0.00349324
-0.102483
-0.938838
-0.388219
0.252407
-0.436958
-0.56308
-0.0424531
-0.10126
-0.471844
-0.185245
-0.511716
0.0459093
-0.797102
-0.113065
-0.705418
0.22566
-1.06843
-0.00149971
0.0947436
-0.787325
-0.00262087
-0.533632
-0.788734
-0.00795567
-0.612509
0.00017569
-0.525005
-0.00335975
0.153228
-0.139928
-0.827724
-0.818038
-0.527905
-0.011253
-0.534207
-0.0323655
-0.0383873
-0.648044
-0.523781
0.04437
-0.420777
-0.236312
-0.886583
-0.834037
0.0369351
0.000159932
-0.699401
-0.00617678
-0.867638
0.0248689
-0.983455
0.0335762
-0.727567
-0.256032
-0.533914
-0.0107251
-0.522747
-0.753592
-0.13176
-0.14349
-0.759403
-0.849008
0.000187144
-0.528043
0.0032134
-0.519905
-0.0113606
-0.174014
-0.682411
-0.389418
-0.612319
-0.528254
-0.0172062
-0.534173
-0.0219737
-0.0363954
-0.567279
-0.890083
0.0560454
-0.223853
-0.625795
0.143547
-0.0273552
0.275693
-0.391885
-0.332064
-0.558019
0.359358
-0.547875
-0.0835481
0.000177493
-0.61603
0.840962
-0.470747
-0.453763
-0.0328528
-0.958586
-0.0773626
-0.642653
-0.375951
0.0707693
-0.422385
-0.0980922
-0.533891
-0.0226717
-0.521967
-0.00891468
-0.513655
0.584358
-0.592635
-0.0690851
-0.425328
-0.512198
-0.437886
0.252505
-0.292858
-0.349066
0.0160363
-0.522934
0.461579
-0.65956
-0.0258717
-0.387627
0.000197315
-0.54668
0.0188244
-0.510652
-0.00603887
-0.516251
-0.0233642
-0.132559
-0.586248
-0.209275
-0.535604
-0.532878
-0.0185018
-0.0516421
-0.53761
-0.301366
-0.0149851
0.288996
0.869894
-0.234842
0.300144
0.00805336
-0.0535823
-0.346356
-0.284695
-0.00861808
-0.129034
-0.472423
-0.687053
-0.029516
0.000198202
-0.586712
0.121513
-0.621776
-0.575133
0.242882
-0.991439
-0.0208529
-0.551031
-0.0688958
-0.544592
0.013438
-0.533915
-0.0348673
-0.521695
-0.022519
-0.508363
-0.00238049
-0.511076
0.191057
-0.687219
0.672158
-0.357303
-0.38394
-0.0403502
-0.461782
0.0515085
-0.440924
0.00084173
-0.472267
0.0787546
-0.504953
-0.466579
0.107163
-0.41371
0.000212113
-0.580622
0.0341387
-0.529825
0.0379971
-0.524826
0.0025361
-0.528243
-0.0279988
0.0949349
-0.0988364
-0.531702
-0.542955
-0.542603
-0.0135091
0.359347
-0.406339
0.0320063
0.413501
-0.286753
-0.344299
-0.325624
-0.0893331
0.208071
-0.895124
-0.551105
0.00945701
0.000228
-0.596397
-0.00644641
-0.605872
-0.641764
0.0601852
-0.748557
-0.000268514
-0.537325
-0.00140872
-0.543452
-0.0429894
-0.525793
-0.0408307
-0.503384
-0.0173793
-0.493364
0.0130067
-0.523855
-0.188883
-0.497494
-0.494068
0.0511248
-0.0133597
-0.478689
-0.509494
-0.0243443
-0.461283
0.0344757
-0.540838
0.30676
-0.773591
0.000251227
0.000213394
-0.61063
0.0302204
-0.583767
0.0880807
-0.111286
-0.375542
-0.457052
-0.0686552
-0.552053
-0.0185491
0.0047198
0.00261657
-0.539038
-0.551744
0.360358
-0.32869
0.000338181
0.000267904
-0.635157
-0.0347654
-0.418413
0.000390624
-0.325918
-0.00317788
-0.306061
-0.236257
-0.640766
-0.133745
-0.761379
0.00536247
0.000277572
-0.602037
0.00296407
-0.603474
-0.633404
-0.00539653
-0.688372
-0.0441517
-0.536162
-0.038439
-0.549165
-0.0529971
-0.513627
-0.064114
-0.456649
0.0143358
-0.494693
0.0282312
-0.551808
0.0543069
-0.513899
-0.467532
0.00716988
-0.514047
0.00966191
-0.481181
0.0131547
-0.464775
-0.028094
-0.551183
-0.624779
0.0143624
-0.625071
0.000543682
-0.628612
0.0750648
-0.363019
-0.205319
-0.65048
-0.590314
-0.0303934
0.00383115
0.00332013
-0.54619
-0.566462
-0.618
-0.00680316
-0.605543
-0.0121196
-0.453631
0.000452419
-0.590751
-0.0144013
0.000514466
-0.457324
-0.0388526
-0.503465
-0.108637
-0.665875
-0.00799607
-0.753383
0.0117738
0.000328299
-0.61414
-0.0325896
-0.55911
-0.623945
-0.0420484
-0.693769
-0.0531077
-0.536052
-0.0432462
-0.559026
-0.0973187
-0.480422
-0.368773
-0.0735399
0.0840418
-0.550504
0.0266141
-0.578094
-0.0180171
-0.523976
-0.472394
-0.00509666
0.00681866
-0.482903
-0.515824
0.00921888
-0.467176
-0.0294157
-0.565013
-0.63821
0.0239612
-0.630364
-0.00730234
-0.668039
0.0926236
-0.765181
-0.0304522
0.0062252
0.00398157
-0.556397
-0.59063
-0.619336
-0.0178318
-0.606078
-0.025377
-0.574875
-0.0154228
-0.591
-0.0294793
-0.0118904
-0.562471
0.000578672
-0.496755
-0.0381545
-0.573948
-0.0080439
-0.665827
0.078046
-0.831428
0.0925001
-0.707007
0.000367544
-0.0311262
-0.435484
-0.359096
-0.295975
-0.735817
-0.0733237
-0.560047
-0.0497556
-0.582594
0.332894
-0.617625
-0.221068
-0.157893
-0.549502
0.000387857
0.0656673
-0.589557
-0.593879
0.0161522
-0.0156558
-0.537736
-0.478831
0.0029596
-0.514802
-0.00158314
-0.478361
-0.00292267
-0.465836
-0.0296296
-0.585139
-0.659721
0.0156425
-0.638117
-0.0289059
-0.69171
0.0191525
0.00257491
-0.014936
-0.544035
-0.618508
-0.61373
-0.0422192
-0.602415
-0.0366913
-0.570493
-0.0359298
-0.593476
-0.038419
-0.0324983
-0.549886
-0.00215599
-0.559736
0.000635218
-0.535545
-0.00249437
-0.579497
0.085171
-0.672952
-0.12691
-0.704518
0.492506
-0.395559
-0.25484
-0.302075
-0.665724
-0.366067
0.0226579
0.108155
-0.526371
-0.0830661
-0.698049
-0.0594166
-0.606244
0.0557561
-0.607714
-0.527254
0.000410296
-0.600873
0.00738213
0.0274734
-0.600878
0.008914
-0.490668
-0.558451
0.0251904
-0.0333405
-0.470211
-0.504547
-0.0267963
-0.47238
-0.0315937
-0.612962
0.0193084
-0.490353
0.414872
0.0561732
-0.699991
0.023924
-0.625176
-0.103721
-0.0495368
-0.010472
-0.484027
-0.648892
-0.600069
-0.0673263
-0.58223
-0.0545302
-0.555979
-0.0734268
-0.0246018
-0.596047
-0.0822996
-0.506177
-0.00588028
-0.546161
0.0103004
-0.569401
0.00069432
-0.538733
0.0367387
-0.531065
-0.532695
-0.292504
0.152247
0.00353775
-0.663143
-0.0224786
-0.68204
0.105473
-0.771197
0.562669
-0.709355
0.00179891
0.0448115
-0.572982
-0.525879
0.000423839
-0.0388865
-0.603406
-0.00156567
-0.643565
0.0299708
-0.610211
-0.601387
0.000924325
0.0137515
-0.607247
0.0116419
-0.601687
-0.505822
0.0617756
-0.0301367
-0.50185
-0.453244
-0.123233
-0.379284
-0.0680917
-0.546436
0.960471
-0.645463
-0.315008
-0.368036
0.541164
-0.153819
-0.562196
-0.296193
0.426271
-0.184481
0.173082
0.696717
0.319928
0.192338
0.292666
-0.058733
-0.322826
-0.614444
-0.947794
-0.474946
-0.576569
-0.688685
0.146412
-0.553686
-0.189529
0.0032604
-0.581548
-0.605559
-0.0639151
-0.316086
-0.371773
-0.00292004
-0.509138
0.0193018
-0.555163
-0.424451
0.135484
0.0237263
-0.592433
0.000750135
-0.502745
-0.439732
0.0609134
-0.490553
-0.195068
0.100156
-0.782195
0.0632701
-0.453668
-0.721551
-0.0606447
-0.00898782
-0.762209
-0.673531
-0.00521529
-0.0725231
-0.495243
-0.531538
0.000443829
-0.599164
-0.00179974
0.0201543
-0.59359
-0.167999
-0.455411
0.0259504
-0.62241
-0.604321
-0.00200147
0.0475964
-0.717375
-0.581459
-0.575679
-0.305455
-0.437184
-0.277251
1.01864
-0.0482191
0.373176
-0.504029
0.427086
-0.0704033
-0.551934
0.530858
-0.132743
-0.669086
-0.179041
-0.0184525
-0.703098
0.656845
-0.0177742
-0.657523
0.604485
0.0216248
-0.0438789
-0.582231
-0.0824133
0.77913
-0.410597
0.135584
0.467351
0.411033
0.0172172
0.397705
-0.0293516
-0.401931
-0.788193
-0.638693
0.208537
-0.430735
-0.397488
0.165328
-0.592803
0.0450647
-0.690528
-0.429445
0.179022
-0.174029
-0.082401
0.23892
-0.472605
-0.457094
0.0359149
-0.525751
0.0453781
-0.576815
-0.364638
0.0603906
0.028705
-0.620388
-0.442625
0.000793908
0.520225
-0.362101
-0.0948543
-0.104287
0.682709
-0.0865085
-0.13306
0.595874
-0.00916309
-0.550786
0.574417
-0.00200575
0.0375098
-0.799719
-0.708544
0.142092
-0.261263
-0.376073
-0.389914
0.000468417
-0.598116
-0.000603771
-0.0101981
-0.595923
0.0799115
-0.647551
-0.812684
-0.611064
-0.0133475
0.141871
-1.1365
-0.745043
0.984561
-0.10559
-0.188554
0.462203
-0.00174806
-0.611503
0.526927
-0.0481668
-0.727597
-0.0629467
-0.0407923
-0.66061
-0.743891
0.0495477
-0.0582192
-0.57356
0.00271288
0.637806
-0.00300342
-0.637516
-0.498526
0.0137548
-0.00183409
0.45543
0.792885
0.329876
0.079323
0.410295
0.00462663
0.434988
-0.00213742
-0.207391
-0.939583
-0.787047
0.277336
-0.509496
0.0405977
-0.588336
0.095052
-0.54666
-0.260172
0.0745563
-0.36661
-0.0675903
-0.0821525
0.111776
-0.502229
-0.503331
0.0567732
-0.537146
0.102098
-0.650208
-0.383041
0.000805841
0.013072
-0.632666
0.423707
-0.466709
-0.051852
-0.0471906
-0.547128
-0.0526407
-0.0377623
0.566589
-0.00133467
0.637963
-0.00216257
0.11615
-0.915869
-0.853657
-0.0495989
-0.571663
0.766506
-0.669631
-0.0974266
0.000551817
0.000518172
-0.595948
-0.00169945
0.00124248
-0.597769
-0.243689
-0.426552
0.000610432
0.707354
-0.416077
-0.340876
0.0464555
-0.125528
-0.6407
-0.786947
-0.475078
-0.0433891
1.01381
0.84137
-0.0610597
-0.0747818
0.550939
-0.02576
-0.633537
0.526806
0.0585639
-0.750204
0.0537203
0.640017
-0.639907
-0.00311293
-0.895643
0.151752
-0.697958
-0.197685
-0.567077
0.0622609
-0.269416
-0.366405
0.692616
0.100269
-0.00534219
0.00327812
-0.00335913
-0.637435
-0.432987
0.639952
0.145353
0.453851
0.0357677
0.442162
-0.00254679
0.580506
-0.0317048
-0.136961
-0.170051
-0.63257
-0.646671
0.123
-0.591898
0.0769514
-0.570235
0.0872036
-0.522087
-0.309243
0.000758958
-0.37749
0.000656137
-0.0673777
0.0745852
-0.509436
-0.513936
0.0737338
-0.508782
0.00130475
-0.63844
-0.63526
0.00340002
0.425138
-0.477159
0.000169568
0.000457363
-0.529566
-0.000234217
-0.000739494
0.637923
-0.00129498
0.639814
-0.00196006
0.223786
-1.13965
0.727298
-0.272302
-0.698685
-0.0174121
0.163617
-0.562282
-0.587833
-0.58882
-0.00660965
-0.590815
0.00254617
0.00496876
-0.604438
-0.699534
0.000679829
0.0561343
-0.646339
-0.673595
-0.283403
0.0894992
-0.538663
-0.224432
0.399853
-0.577112
-0.715926
0.896987
-0.0131857
-0.0388364
0.425006
0.510817
0.559343
0.454466
0.822653
-0.0260028
-0.00233276
0.544943
-0.0438972
-0.609178
0.526644
0.141098
-0.910894
0.355435
-0.638832
-0.0044346
0.473112
0.156672
-0.632897
-0.590843
-0.24565
-0.4837
-0.304828
0.0128602
-0.624915
-0.707541
0.218499
0.0326799
0.00365769
-0.0015518
-0.639541
-0.416469
0.542554
0.0566505
0.480882
-0.00295257
0.611598
-0.0336389
0.569845
-0.0566066
-0.0315716
-0.511499
-0.555243
-0.102572
0.0483247
-0.484415
0.0553626
-0.570309
0.0635111
-0.546543
0.0692792
-0.516781
-0.636073
0.00157139
-0.636545
0.00112894
-0.0685709
0.0673335
-0.508199
-0.508773
0.00939426
-0.516871
-0.636495
0.0014545
-0.636981
0.000892926
-0.637375
0.000563145
-0.637711
0.000102076
-0.00052714
0.639435
-0.000915804
0.421407
0.0497442
-0.390773
0.386645
0.1608
-0.191984
-0.947671
-0.051913
-0.838756
-0.0417832
0.135337
-0.655835
-0.624647
-0.581787
-0.0292604
-0.533328
-0.0459128
0.0450151
-0.522209
-0.752135
0.000687255
-0.484453
-0.161206
0.323695
-0.76547
-0.675634
-0.424205
-0.475861
0.85995
0.0127641
0.415482
0.405632
0.265074
0.575413
-0.508712
1.06806
0.456571
0.831368
-0.000400999
-0.0818584
0.534536
-0.0517889
-0.519311
0.526402
0.134007
0.130855
-0.29473
-0.634963
-0.00542072
-0.542927
-0.0944042
0.276526
-0.179184
-0.488114
0.519705
0.0555286
-0.433376
0.129315
-0.320854
0.00390831
0.0105195
-0.653968
-0.283246
0.540899
-0.00336618
0.62756
-0.018915
0.640157
-0.103951
0.538644
-0.0607146
0.0663608
-0.593138
-0.00806357
-0.455111
-0.507944
-0.0389199
0.0200492
-0.465545
0.0390162
-0.545815
0.0533201
-0.530584
0.0615387
-0.510987
-0.636498
0.00157407
-0.636967
0.00159835
0.00968504
-0.509064
-0.00287125
-0.495643
-0.532365
0.0169485
-0.637538
0.00146436
-0.638187
0.00121213
-0.638845
0.000760161
6.23659e-05
0.412486
0.00800611
0.389094
0.0472952
-0.24137
0.140905
0.261265
0.221553
-0.186398
-0.0411857
-0.906485
-0.0344824
-0.845459
0.0117434
0.0683248
-0.735904
-0.642164
-0.376225
-0.311852
0.115617
-0.446826
-0.315355
0.093634
-0.300488
-0.787352
0.000734834
-0.443283
-0.0404828
-0.102716
-0.373844
-0.076878
-0.620267
-0.486378
-0.177651
1.04812
0.734724
0.333332
0.290065
-0.272849
0.388416
0.0702105
0.484929
0.133349
0.898635
0.820535
0.0364139
0.726612
0.0120646
0.525956
-0.051343
-0.497911
0.52611
0.105809
-0.437326
0.0702696
-0.00544401
-0.618244
-0.00619914
0.29707
-0.104371
-0.371883
-0.527855
-0.0204931
-0.0989307
-0.483588
0.00401744
0.0483327
-0.706319
0.600082
-0.0036551
0.645975
-0.0217805
0.625287
-0.00404493
0.508068
-0.0733749
0.520725
-0.055484
-0.093423
-0.538635
-0.00725156
-0.427811
-0.476179
-0.0256216
0.009652
-0.449575
0.0321157
-0.52461
0.0488656
-0.517911
-0.0168114
-0.497046
0.542548
-0.513808
-0.0271415
0.0117569
0.0242081
-0.516323
-0.00451318
-0.466921
-0.477945
-0.0343987
-0.447589
-0.0291443
0.424793
-0.0122452
-0.0220354
0.390892
0.00620783
0.11482
-0.163825
0.18991
0.42338
0.225028
-0.1673
0.240984
-0.130313
0.0418679
-0.948353
0.0355847
-0.839176
-0.752519
0.000751383
-0.271672
0.0877035
-0.551935
-0.467907
0.101015
-0.454208
0.00999769
-0.413202
-0.430827
-0.0117207
0.00881902
-0.423146
0.0317436
-0.564307
-0.548057
-0.110581
0.789901
0.187905
0.58737
0.624716
0.110008
-0.468176
0.563637
0.23787
-0.0251288
0.483755
0.0814392
0.536839
-0.0511519
0.481611
-0.804699
0.715487
0.101277
0.0894349
0.52122
-0.0464535
-0.509048
0.52577
0.0890868
-0.584187
0.145409
0.125856
-0.563209
-0.00670229
0.273613
-0.3225
-0.0554835
-0.565096
0.0310422
-0.0593243
-0.411489
-0.484322
-0.0197591
-0.711342
0.200875
-0.195851
-0.0690225
-0.355519
-0.00681524
0.608354
-0.00484737
0.530405
-0.0263822
0.50752
-0.0601701
-0.049056
0.514792
-0.03477
-0.529487
-0.00881703
-0.409342
-0.45288
-0.0229531
0.00633017
-0.432952
0.0306671
-0.506412
-0.0140578
-0.520664
-0.464141
-0.0374183
0.609106
-0.494711
-0.141536
0.10454
0.00420677
-0.366589
-0.457817
-0.0712934
-0.434359
-0.0526014
0.416125
-0.0374778
-0.0402698
0.297586
0.132001
-0.159962
0.309249
0.0406229
0.21152
-0.146454
0.216049
-0.142364
0.230358
-0.0870575
0.193168
-1.14152
0.0429456
-0.688954
-0.710302
0.00072912
-0.42644
-0.00363583
-0.122847
0.0875773
-0.516665
-0.48974
0.0645743
-0.508784
0.00118856
-0.405572
-0.423945
-0.010921
0.0516273
-0.528357
-0.5312
-0.013047
0.759816
0.424796
-0.107343
0.472448
0.0556069
0.557094
0.0369009
0.525341
0.59958
0.0251362
0.555991
0.117654
-0.277573
0.422324
0.0931194
0.0382728
0.526922
-0.00172746
0.487415
0.286285
-0.0822478
-0.0267354
0.626315
-0.820419
0.729093
0.192603
0.126845
0.0480107
0.796662
0.51828
-0.0389642
-0.400053
0.525436
-0.0362956
0.622534
0.232415
0.367889
-0.68468
0.112882
-0.357946
-0.0238787
-0.500014
0.0467348
-0.00700802
-0.42424
-0.544983
-0.00638757
-0.00565159
-0.545109
-0.146387
-0.0416071
0.510831
0.547486
-0.0219281
0.534118
-0.0529795
-0.0521513
0.506774
-0.0378561
-0.514584
-0.0100851
-0.392926
-0.432298
0.0258769
-0.0268744
-0.431955
-0.340158
-0.119776
0.00892841
-0.529398
-0.51809
-0.0399927
0.506743
-0.388754
-0.259525
-0.200004
0.633417
-0.318933
-0.367085
0.173369
-0.251055
0.511163
0.190196
0.15196
0.421278
-0.169135
0.21995
-0.150354
0.207914
-0.11992
-0.937464
-0.204057
0.305847
-0.731497
-0.263304
-0.405075
0.000620081
-0.425076
-0.000634835
-0.424391
-0.00319043
-0.0836676
0.075587
-0.508585
-0.508833
-0.00262218
-0.504974
-0.417812
0.00131867
0.0558338
-0.508604
-0.513222
-0.870493
-0.0669712
-0.887643
0.0171496
0.0185341
0.633938
-0.00779679
0.535852
0.0546771
0.539318
0.0368217
0.526792
0.552875
0.0282522
0.477437
0.0625413
0.387912
-0.00850704
0.0400227
0.485172
0.407323
-0.00215658
-0.0497574
0.575897
0.684393
-0.0580782
0.746016
-0.0616227
0.906464
-0.160448
0.362533
-0.343713
0.945397
0.0392689
0.685139
0.45286
0.94511
0.131907
0.68329
-0.516012
0.504261
-0.0298567
-0.0295402
0.525148
-0.193555
0.169377
0.748177
-0.518135
0.131002
-0.3731
0.00814579
-0.423193
0.0456878
0.545784
-0.00395018
-0.00571173
0.435862
-0.192061
-0.390189
-0.301283
0.21901
0.0471357
-0.0421462
0.499272
0.505816
0.560936
-0.0487469
-0.0855338
0.539328
0.0313622
-0.520069
0.024108
-0.447478
-0.395693
0.0147325
-0.034808
-0.411879
-0.511256
-0.126611
0.00337985
-0.57277
0.47158
-0.557736
-0.23968
0.538529
-0.309737
-0.0385965
0.323404
0.25613
-0.144589
0.213825
-0.16301
0.20723
-0.14967
-0.839779
-0.0957739
-0.668838
0.000459067
-0.424756
0.000299711
-0.424661
-0.000365032
-0.422412
0.0014101
0.0122376
-0.0265654
-0.494257
-0.499217
-0.508328
0.00467338
0.0343729
-0.516233
-0.500796
0.523466
-0.325294
0.164361
-0.84851
-0.0582406
-0.307894
0.0595931
0.566549
0.0523633
0.538165
0.0494727
0.526667
0.0893544
0.47746
0.48538
0.020309
0.432915
0.0175381
0.401399
-0.00258313
0.0315223
0.451493
0.46714
-0.0315171
-0.207907
0.725726
-0.104374
0.363607
-0.407558
0.209589
-0.127325
0.667541
-0.00343817
-0.599657
-0.151614
-0.0925637
0.394545
0.682471
0.431327
0.416079
0.588437
0.154445
-0.0851496
0.685853
-0.521717
0.485481
0.00637962
-0.0261093
0.0297373
0.524885
0.486811
-0.0434765
-0.392375
0.100184
-0.367518
0.0401062
0.598806
-0.0418199
-0.202906
0.28283
-0.271985
-0.252482
0.234029
-0.321523
0.148159
-0.0990521
0.519334
-0.0084884
0.408708
0.575517
-0.0849364
0.0268903
-0.532227
0.0401957
-0.484294
-0.390305
-0.0453851
-0.0721971
-0.294297
0.671493
-0.541342
-0.369832
-0.0278879
0.245349
-0.479681
0.162258
-0.458251
0.46977
-0.252237
0.260112
-0.190876
0.21613
-0.171911
-0.764791
0.000178958
-0.42475
0.000453538
-0.424921
0.000559597
-0.424246
0.00146875
-0.527627
0.0207092
0.00412317
-0.0117456
-0.486634
-0.490421
0.052395
-0.541738
-0.460147
-0.436389
0.292856
-0.822837
-0.000194501
-0.0794833
0.144266
0.523654
0.539428
0.0612386
0.5264
0.140193
0.475828
0.0746778
0.434305
0.446754
0.00647015
0.421925
-0.00298755
0.0168814
0.432028
0.42062
-0.00538335
0.29718
0.0190662
0.604568
0.0562189
-0.315519
0.0887188
-0.424693
-0.0181507
0.582167
0.0189632
-0.523641
-0.0526653
-0.0340383
0.241962
0.594955
0.572891
0.400101
0.33912
0.190864
0.524727
0.438072
0.0402507
-0.630725
0.378801
0.258304
-0.131949
0.47984
-0.144516
-0.0724189
-0.0529406
0.52546
-0.339801
0.0724663
0.584489
-0.0507911
0.242695
0.0698094
-0.221893
0.212105
-0.262418
0.174923
-0.297166
0.105524
-0.660974
0.4131
0.197083
-0.226576
0.269711
-0.0875798
-0.0175822
-0.56003
0.146236
-0.658418
-0.316266
-0.137008
-0.473555
0.247652
-0.455226
0.268311
-0.278221
0.193664
-0.383604
0.233419
-0.225544
0.219787
-0.194533
-0.424824
0.000253002
-0.425177
0.000709766
-0.425132
0.00144583
-0.557162
0.0310036
-0.0496449
-0.0710459
-0.365944
-0.519356
0.143596
-0.702916
-0.387597
-0.52922
-0.000761436
-0.424834
-0.00018456
-0.0745418
0.525777
0.526125
0.166619
0.499974
0.18199
0.368516
0.0308712
0.420315
0.431762
-0.00336636
0.00502357
0.424017
0.43006
-0.00368174
0.453018
-0.00389149
0.51313
-0.00389375
-0.439107
-0.00139436
-0.45517
-0.00208743
0.535806
-0.00371294
-0.50508
-0.00275507
-0.0033121
0.238915
0.52484
0.525095
-0.203385
0.596162
-0.288919
0.516722
0.0419084
0.0615739
0.418393
0.101697
-0.365281
0.479069
-0.189628
0.199509
0.515579
-0.358122
0.206039
-0.236653
0.18634
-0.257249
0.135006
-0.196077
0.251054
-0.245074
0.246081
-0.0873055
0.358953
-0.13831
-0.558728
-0.0242619
-0.386504
-0.128397
-0.36942
0.116004
-0.377566
0.228649
-0.27345
0.158331
-0.313286
0.217592
-0.223349
-0.425359
0.000435375
-0.425658
0.00123545
-0.556067
0.000350362
-0.0955163
-0.658024
-0.583869
-0.16285
-0.678376
-0.424765
-0.000830349
-0.425462
-8.11901e-05
0.179381
0.513363
0.515531
0.173888
0.508076
-0.00405288
0.40344
0.00595035
0.419388
0.421549
-0.000897814
0.421217
-0.00335014
0.421625
-0.00429922
0.422292
-0.0045612
-0.424527
-0.00163321
-0.424128
-0.00248598
0.422973
-0.0043941
-0.423598
-0.00328502
-0.0039369
0.208105
0.516498
0.52956
-0.250832
0.481713
-0.343872
0.27701
0.10877
0.136095
0.135958
0.444809
-0.127436
0.317141
-0.188442
0.198128
0.505893
-0.232951
0.202337
-0.227571
0.156663
-0.209342
0.227445
-0.216527
0.253266
-0.136054
0.278479
-0.213458
-0.473667
0.00441638
-0.274916
-0.0970571
-0.267946
0.0853609
-0.304596
0.192198
-0.248057
0.142197
-0.263285
-0.426015
0.000792483
-0.514762
-0.0400698
-0.105063
-0.71581
-0.688582
-0.492832
-0.399002
-0.42543
-0.000862629
-0.426237
0.000141176
0.179718
0.507534
0.506806
-0.0172699
0.521293
-0.00482313
0.414213
0.419988
-0.00149807
0.420849
-0.00421079
0.421777
-0.00522725
0.422671
-0.00545469
-0.425207
-0.00185627
-0.424791
-0.00290221
0.423489
-0.00521282
-0.424208
-0.00386765
-0.00465596
0.212534
0.502093
0.491263
0.133703
0.483968
-0.398462
0.379795
0.182443
-0.115351
0.296438
0.017127
-0.00302379
0.49179
-0.204126
0.178892
-0.183723
0.207042
-0.161078
0.230621
-0.127631
0.245033
7.46928e-05
-6.11314e-05
6.20081e-06
-1.97777e-05
-0.190801
-0.379923
0.00413334
-0.193689
-0.0748432
-0.18897
0.0716909
-0.23409
9.52137e-05
0.000135434
-0.000155964
-0.510885
-0.00308412
-0.401815
-0.326837
-0.119656
-0.246266
-0.349889
-0.275346
-0.337142
-0.225982
-0.363821
-0.426253
-0.000846645
-0.499434
-0.0113103
0.024438
0.499495
0.514702
-0.0224177
0.538888
0.418383
-0.00566818
0.420584
-0.00641118
0.422082
-0.0067256
0.423162
-0.00653439
-0.426022
-0.00208798
-0.425554
-0.00337029
0.424106
-0.006157
-0.424913
-0.00450871
-0.00546256
0.0692572
0.555708
0.568326
0.156845
0.509566
-0.0614329
0.325877
-0.0864556
0.255263
-0.0258745
0.231743
0.362458
0.035138
0.430777
-9.48732e-06
9.30863e-05
-0.000144751
-4.61732e-05
5.23812e-05
-1.11556e-08
-0.154084
-0.300683
0.0031171
-0.125115
-0.06188
-0.123973
1.00494e-05
0.000540192
-0.000455035
-2.50268e-05
0.000114283
0.00130386
0.00363801
-0.00493185
0.164471
-0.56937
-0.408632
-0.303141
-0.322094
-0.24765
-0.315474
-0.20715
-0.310755
-0.49436
-0.00592025
-0.47779
-0.10289
0.0432902
0.491343
0.535574
0.542821
-0.00960137
0.498824
0.0375855
0.451362
0.0407364
0.423188
0.0216402
-0.48713
-0.00931776
-0.451295
-0.0392057
0.413279
0.00375124
0.421771
-0.0139545
-0.0340322
0.315114
0.397439
0.10071
0.347423
-0.022135
0.261557
0.256945
0.289912
0.033173
0.0986356
0.230649
0.110113
0.353837
-1.37668e-05
-7.78325e-05
8.2109e-05
9.71136e-05
4.83422e-05
-0.000104058
0.00010656
-2.524e-06
-0.132813
-0.22975
-1.48702e-06
0.000516649
-7.70904e-05
8.73066e-05
0.00162995
0.000852399
-0.00117851
0.000977026
0.00265949
-0.423042
-0.288731
-0.284006
-0.285737
-0.240816
-0.281809
-0.182706
-0.260862
-0.489687
0.00597669
-0.175495
-0.350437
0.106408
0.495048
0.632381
0.48538
0.184586
0.432054
0.0940625
0.406675
0.0470193
-0.550907
0.0519017
-0.432512
-0.1576
0.397052
0.0133749
0.401727
-0.0186304
-0.0648171
0.176547
0.321602
0.0620935
0.263194
0.135663
0.219918
0.190651
0.275808
0.128031
0.238281
0.207111
0.274758
5.35437e-05
-0.000556975
0.00048966
8.93918e-05
-7.01112e-05
0.000137811
1.70734e-05
-0.000125842
0.000126691
-3.38048e-06
-0.00160416
-0.00480911
0.00646677
0.00188336
0.00071438
-0.00096781
-7.38504e-06
0.000446938
-9.83926e-05
5.98516e-05
0.00123494
0.000594451
0.000749587
0.00190251
-0.30387
-0.268866
-0.270014
-0.256539
-0.217
-0.247514
-0.166072
-0.313293
-0.510532
-0.40243
-0.0562002
0.427722
0.274436
0.416057
0.196251
0.394944
0.115175
0.378478
0.063485
-0.296148
0.0732564
-0.179539
-0.364021
-0.0897269
0.368879
0.0229739
0.365381
-0.0151316
-0.0634579
0.125418
0.258277
0.170352
0.240217
0.153819
0.247407
0.182685
0.225948
0.237734
0.219709
6.22282e-05
-0.000529816
0.000125192
-5.75075e-05
0.000146512
-2.76275e-06
-0.000127946
0.000128682
-4.12735e-06
-0.00211704
-0.000935475
0.0014483
-0.00123075
-0.00351615
0.00217141
0.000932815
-0.00122089
0.0014348
0.000514518
-8.30297e-06
0.000356844
-0.000103866
3.57637e-05
0.000950522
0.000393473
0.000577295
0.0013169
-0.303852
-0.235029
-0.249878
-0.223661
-0.420059
-0.197086
-0.355288
-0.120972
-0.212815
-0.0692162
0.3115
0.20067
0.346317
0.161435
0.3484
0.113092
0.34198
0.0699044
-0.291242
-0.101112
-0.3031
-0.0778687
0.333109
0.0318452
0.322837
-0.00485997
-0.0437208
0.162831
0.231205
0.182201
0.206578
0.223653
0.178258
-0.00259684
-0.000955699
0.0014356
4.96351e-05
-0.000454275
0.000134772
-4.57775e-05
0.000138946
-1.30477e-05
-0.000120263
0.000119748
-3.6315e-06
-0.00159286
-0.000573363
-0.000954993
-0.00251153
0.00240509
0.000681788
-0.000915476
0.00166792
0.00069967
0.00109963
0.000365431
-7.09871e-06
0.00026007
-0.000100557
1.60444e-05
0.000731918
0.00023883
0.000450482
0.000859321
-0.289876
-0.195031
-0.31411
-0.172852
-0.283404
-0.151678
-0.230476
-0.122144
0.268686
0.155637
0.297042
0.133078
0.306628
0.103506
0.30541
0.0711225
-0.242938
-0.08865
-0.264764
-0.0560428
0.29755
0.039705
0.284562
0.00812843
-0.0239227
-0.00335948
-0.00179848
0.00256105
-0.00193126
-0.000617301
3.32908e-05
-0.000352808
0.00012952
-3.63703e-05
0.000123146
-1.64794e-05
-0.000105333
0.000105054
-3.37444e-06
-0.00120588
-0.00032249
-0.00074963
-0.00172862
0.00260687
0.000961461
-0.00116326
0.00185397
0.000495737
0.00129431
0.000504949
0.000849144
0.000248196
-5.06796e-06
0.00016457
-9.24839e-05
3.17895e-06
0.000568511
0.000120626
0.0003529
0.000501351
-0.00443799
-0.00304569
0.00412456
-0.00250872
-0.0012209
-0.00143327
-0.000389873
1.91461e-05
-0.000242457
0.000114668
-2.79255e-05
0.000100702
-1.21652e-05
-7.91577e-05
7.57832e-05
-0.000917235
-0.000154874
-0.000590179
-0.0011193
0.00256891
0.000145043
-0.000107081
0.00204707
0.000768326
0.00143345
0.000356617
0.00100286
0.000351218
0.000653778
0.000163082
-2.86604e-06
7.49382e-05
-7.59788e-05
0.000436891
3.63689e-05
0.000276897
0.000221586
-0.00574319
-0.0049587
0.00626474
-0.00340301
-0.00215131
-0.00186078
-0.000793331
-0.00107291
-0.000234196
9.41266e-06
-0.000137243
9.16919e-05
-1.89464e-05
6.36179e-05
-0.000697318
-4.77053e-05
-0.000466548
-0.00064334
0.000829149
-0.00662235
0.00836208
0.00203481
0.000157308
0.00160948
0.000592237
0.00111286
0.000246603
0.000779433
0.000225384
0.000503788
9.63991e-05
-1.0407e-06
0.00032582
-1.29137e-05
-0.00775259
-0.012064
0.0140726
-0.00457678
-0.00378295
-0.00256666
-0.00144533
-0.00137085
-0.000495278
-0.000794777
-0.000136757
2.46559e-06
-4.80542e-05
4.46715e-05
-0.000529321
1.51379e-05
-0.00036436
-0.000276514
-0.00024491
-0.00288143
0.00395546
0.0005836
-0.00517118
0.001619
0.000147826
0.00127447
0.000430605
0.000862185
0.000164008
0.000600811
0.000128096
0.000374846
4.76508e-05
0.000207632
-0.000220546
-0.00668728
0.00473433
-0.00579788
-0.0064667
-0.0101748
-0.00359567
-0.00274997
-0.00191056
-0.000905472
-0.00100858
-0.000280906
-0.000591898
-7.42291e-05
-3.38269e-06
-0.000385376
3.62451e-05
-0.00048049
-0.00016508
0.000400665
-0.00027155
-0.00202628
0.000392677
-0.00394493
0.00128782
0.000134485
0.00100591
0.000286657
0.000669945
9.50946e-05
0.000453934
4.86552e-05
0.000255282
-0.00636195
-0.000636624
0.000309241
-0.00559804
0.00386859
-0.00541219
-0.00836121
-0.00280235
-0.00185701
-0.00138691
-0.000527541
-0.000729718
-0.000142204
-0.000430072
-2.95908e-05
-0.000243652
0.000279897
-0.000466292
4.71692e-05
-6.13775e-05
-0.000414873
-2.17716e-05
-0.000278534
-0.00135502
0.000248853
-0.00290599
0.00102021
0.000120378
0.000787765
0.000168508
0.000504595
4.47283e-05
0.000303938
-0.00465461
0.00815078
-0.009859
-0.00538152
-0.000855362
-0.00467103
0.00313268
-0.0045126
-0.0066514
-0.00214454
-0.00108228
-0.000979327
-0.000278316
-0.000518691
-5.24833e-05
-0.000273241
-0.000282082
0.000728879
-0.000913099
-0.000400557
3.28535e-05
-0.00035202
5.16819e-05
-0.000271041
-0.000835137
0.000139859
-0.00202596
0.000806462
0.000101965
0.000605586
6.70674e-05
0.000348666
-0.00293395
0.00692122
-0.00864193
-0.00386721
0.00663578
-0.00453112
-0.00100189
-0.00387586
0.00249753
-0.00379532
-0.00501744
-0.00158205
-0.000458193
-0.000669703
-0.000127767
-0.000325725
2.53883e-06
0.00100947
-0.00129408
-0.000237759
0.000566066
-0.000340776
2.16303e-05
-0.000294409
7.5043e-05
-0.000253169
-0.000441818
5.49023e-05
-0.00127486
0.000641026
6.69285e-05
0.000415734
-0.00145692
0.00433103
-0.00580807
-0.00236098
0.00541473
-0.00318809
0.00529179
-0.00381644
-0.00106303
-0.00321191
0.00194233
-0.00321097
-0.00341058
-0.00109915
-1.59194e-06
-0.000453441
0.000294614
0.00103438
-0.00132645
2.06136e-06
0.000769643
-0.000198823
0.000424081
-0.000288225
1.54417e-05
-0.00024281
6.45309e-05
-0.000227024
-0.000159492
-2.49176e-05
-0.000609427
0.000482662
-2.3058e-06
0.00488721
-0.00634161
-0.00119307
0.003163
-0.00188985
0.00411693
-0.00264316
0.00411786
-0.00321148
-0.00109168
-0.00263777
0.00141298
-0.00272565
-0.00181053
-0.00045508
0.000486241
0.00076154
-0.000953156
0.000247379
0.000789059
1.65435e-06
0.000569178
-0.000165225
0.000301067
-0.000240342
1.31197e-05
-0.000198798
3.60693e-05
-0.000190435
6.48471e-06
-0.000126765
0.00140473
0.00476235
-0.0061691
-3.12338e-06
0.00369739
-0.000976079
0.0022489
-0.0015061
0.00297945
-0.00216905
0.00307251
-0.00274743
-0.00101918
-0.00209604
0.000841621
-0.00226547
0.000494456
6.77569e-06
-1.49742e-05
0.000417582
0.000591344
0.000206637
0.000584051
1.31785e-06
0.000402622
-0.000136575
0.000197173
-0.000198101
1.26462e-05
-0.00015934
4.68467e-06
-0.000120281
0.00279293
0.00406356
-0.00545135
0.00115544
0.00360366
-2.02188e-06
0.00272369
-0.000798725
0.00154148
-0.00119778
0.00201062
-0.00178175
0.00210153
-0.00239401
-0.000778796
-0.00142405
0.000254593
-0.000212405
0.000452264
0.000423905
4.57588e-07
0.000354445
0.000443553
0.00017159
0.000413769
1.05195e-06
0.000265092
-0.000111431
0.000110295
-0.000157445