/*--------------------------------*- C++ -*----------------------------------*\
  =========                 |
  \\      /  F ield         | OpenFOAM: The Open Source CFD Toolbox
   \\    /   O peration     | Website:  https://openfoam.org
    \\  /    A nd           | Version:  8
     \\/     M anipulation  |
\*---------------------------------------------------------------------------*/
FoamFile
{
    version     2.0;
    format      ascii;
    class       volScalarField;
    location    "16000";
    object      k;
}
// * * * * * * * * * * * * * * * * * * * * * * * * * * * * * * * * * * * * * //

dimensions      [0 2 -2 0 0 0 0];

internalField   nonuniform List<scalar> 
4109
(
0.0294936
0.0310431
0.029742
0.0310134
0.0317424
0.0314663
0.0319627
0.03015
0.0330108
0.0325449
0.0325708
0.0333186
0.0298507
0.0316902
0.032409
0.0337109
0.0334961
0.03351
0.0338681
0.0325536
0.0299015
0.0313737
0.0314109
0.0345923
0.0346237
0.0350341
0.0295907
0.0316261
0.0298768
0.0348557
0.0335083
0.0328086
0.031397
0.0312891
0.0322226
0.0351654
0.0350532
0.0361743
0.0318924
0.0298488
0.0315742
0.0317704
0.0302768
0.0355139
0.0341216
0.0954197
0.0481533
0.0334854
0.0329016
0.031251
0.0322432
0.0358538
0.0366373
0.0379046
0.0336102
0.0317938
0.0293649
0.0318969
0.0323665
0.0331456
0.0328788
0.121496
0.0367272
0.035103
0.034444
0.0418706
0.0870264
0.0337479
0.0327678
0.0324806
0.0393813
0.0373379
0.0425474
0.0413715
0.0411864
0.0341544
0.0340539
0.0326718
0.0311592
0.0328944
0.0325821
0.0329289
0.0334803
0.033614
0.0384293
0.0452511
0.100145
0.131043
0.132409
0.0379105
0.0375049
0.0358032
0.0351129
0.0345487
0.0382826
0.0665319
0.0337304
0.0325639
0.0427003
0.0410166
0.0398859
0.0429949
0.043713
0.0432582
0.0434024
0.0352869
0.0347659
0.0339337
0.032108
0.0341317
0.0388395
0.0333685
0.0338816
0.0341181
0.0346742
0.138207
0.0527419
0.0664476
0.0893295
0.14001
0.137565
0.0432846
0.0397092
0.0385823
0.036838
0.0361073
0.0354206
0.0344098
0.0668956
0.0344533
0.033817
0.043123
0.0417124
0.0448116
0.0440366
0.0455689
0.0443332
0.035968
0.0356528
0.035571
0.0337212
0.0348147
0.0399906
0.0339472
0.0345554
0.0350242
0.0352689
0.124859
0.0734867
0.140771
0.0934686
0.143826
0.0503983
0.0405643
0.0394826
0.0376552
0.0368703
0.0361797
0.0354487
0.0343828
0.0614668
0.0330331
0.0426388
0.0412535
0.0456743
0.0437598
0.046447
0.0468461
0.0476455
0.0371339
0.0366141
0.036331
0.0345557
0.0358
0.0412118
0.0347742
0.0354559
0.0356977
0.0363702
0.0857434
0.15685
0.0884552
0.14753
0.147755
0.0511644
0.038783
0.0397309
0.0378945
0.0361473
0.0370802
0.0356145
0.0673021
0.0339073
0.0409557
0.0420216
0.0451887
0.0433404
0.0464316
0.0480914
0.0477229
0.0507254
0.0379034
0.0376175
0.0376498
0.0361746
0.0360476
0.0414336
0.035504
0.0361264
0.0367111
0.0370908
0.0883068
0.158452
0.154121
0.0931432
0.157211
0.0507764
0.0388934
0.0400826
0.0375248
0.0364929
0.0688133
0.0349686
0.0411787
0.0424252
0.0445454
0.0436488
0.0459791
0.0480246
0.0491898
0.051137
0.053491
0.0391801
0.0385744
0.0383981
0.0372313
0.0369124
0.0424617
0.0370112
0.0362537
0.0400884
0.0375824
0.0382753
0.0848997
0.16644
0.0967922
0.161537
0.163423
0.0516245
0.0392032
0.0399783
0.037898
0.0722166
0.035352
0.0415112
0.0424203
0.0449574
0.0439934
0.0463103
0.0473383
0.0495491
0.0514384
0.0529531
0.0570317
0.0401948
0.0393392
0.0387303
0.0410629
0.0372225
0.0428832
0.0374982
0.0414013
0.0391362
0.0387238
0.173593
0.0846246
0.168894
0.100556
0.173551
0.0522229
0.178178
0.0390001
0.0403526
0.0738794
0.0361559
0.0414863
0.042675
0.0450576
0.0440032
0.0466198
0.0476818
0.0489256
0.0514042
0.0533722
0.0562288
0.0566062
0.0607034
0.0393254
0.0407661
0.0390695
0.0422313
0.0424581
0.0379197
0.0437164
0.0391343
0.0404115
0.0397641
0.0849786
0.181512
0.175598
0.0991203
0.179867
0.0529391
0.192185
0.184677
0.201925
0.165711
0.185362
0.156429
0.0883284
0.0370692
0.0403169
0.0423383
0.0432151
0.0439458
0.045434
0.0467574
0.0477075
0.0491797
0.0578432
0.0504672
0.0532129
0.0559856
0.0613238
0.0648614
0.0632742
0.0693733
0.0416362
0.0411542
0.0434469
0.0438744
0.0414032
0.0392329
0.0452233
0.0398998
0.0409902
0.0874971
0.194268
0.181034
0.052869
0.291805
0.259642
0.201859
0.172462
0.195364
0.221414
0.0754763
0.0759825
0.0811417
0.159978
0.149359
0.151417
0.148046
0.159317
0.150559
0.0387262
0.0452328
0.0452825
0.0459863
0.0606697
0.047005
0.0479487
0.0493294
0.0507211
0.0577031
0.0522391
0.0552907
0.0651246
0.0617056
0.0681427
0.0678822
0.0765104
0.0808355
0.0429086
0.0436708
0.0450706
0.0450186
0.0427835
0.0421231
0.0402972
0.0449216
0.0414816
0.0915197
0.21841
0.302446
0.258241
0.177273
0.194673
0.221846
0.0795141
0.0814118
0.0869646
0.0826626
0.085638
0.132774
0.139184
0.139541
0.147218
0.160072
0.240389
0.119264
0.0441254
0.0474632
0.0471607
0.0600608
0.0611583
0.0491738
0.0491163
0.0506094
0.0523905
0.05714
0.0540081
0.0657927
0.0637523
0.0692208
0.0721347
0.0768433
0.0786503
0.0456585
0.0449447
0.0423631
0.0475729
0.0465222
0.0439286
0.0434544
0.0497167
0.0429092
0.0417909
0.0498516
0.0973123
0.294377
0.324317
0.260233
0.176716
0.19758
0.225335
0.0820357
0.0895074
0.0979474
0.087682
0.0919248
0.122685
0.10927
0.0871524
0.0904033
0.129305
0.137202
0.147586
0.158635
0.257668
0.211404
0.0650548
0.0491775
0.0496753
0.0593154
0.0612047
0.0502859
0.0506704
0.0523627
0.0541236
0.0560351
0.0663927
0.0639626
0.0696927
0.0728347
0.0749041
0.0782349
0.0475254
0.0496679
0.0476117
0.0438727
0.043934
0.0454458
0.0467594
0.0447533
0.0509279
0.0485202
0.169927
0.222069
0.0434373
0.041272
0.304913
0.257193
0.255513
0.326934
0.265677
0.17739
0.199507
0.230036
0.0861815
0.0808368
0.0934813
0.0994576
0.0972087
0.107371
0.118065
0.0920539
0.0961632
0.127289
0.134558
0.147115
0.162411
0.318265
0.273418
0.319574
0.0649563
0.0524513
0.0511498
0.0581017
0.0604347
0.0523505
0.0522428
0.0538896
0.0560982
0.0628431
0.0655458
0.0683769
0.0715453
0.07466
0.0773511
0.0791724
0.05073
0.0507087
0.0453181
0.0450457
0.0462648
0.0476403
0.0493121
0.0529671
0.0500676
0.0451154
0.0510838
0.0557056
0.31422
0.260681
0.243283
0.192409
0.191702
0.331402
0.261553
0.17987
0.190323
0.209855
0.0906919
0.0845431
0.0826235
0.117015
0.102104
0.106039
0.0975871
0.101434
0.125649
0.133304
0.149907
0.164021
0.0870371
0.350406
0.32926
0.352869
0.0777343
0.055127
0.0538548
0.0581752
0.0604453
0.0540304
0.0539128
0.0560533
0.0628485
0.0654781
0.0682847
0.0713625
0.0739964
0.0759228
0.0790993
0.0798324
0.0532129
0.054194
0.0469656
0.046971
0.0482613
0.0496738
0.0508926
0.0548004
0.0517955
0.0508242
0.046915
0.0479023
0.311106
0.166955
0.230566
0.222495
0.192826
0.334703
0.262779
0.175032
0.195203
0.215467
0.241861
0.0956993
0.0839854
0.0893884
0.0840318
0.103494
0.114226
0.108682
0.12574
0.138973
0.152621
0.160453
0.0879305
0.386891
0.371455
0.405579
0.0809131
0.0590827
0.0559646
0.0604228
0.0579751
0.0560392
0.0561968
0.062665
0.0653808
0.0709956
0.0679701
0.0733245
0.0758572
0.0759436
0.0787372
0.0821519
0.056871
0.056096
0.0573878
0.0489199
0.04873
0.0508966
0.0524992
0.0535602
0.0530926
0.0487642
0.0504367
0.316673
0.255876
0.144123
0.150031
0.205882
0.197877
0.174268
0.271596
0.331827
0.178324
0.194489
0.211276
0.236283
0.101053
0.0855575
0.0936483
0.0868777
0.0896802
0.110237
0.114315
0.106576
0.127834
0.140724
0.150769
0.164765
0.114257
0.42578
0.426245
0.439806
0.0927076
0.0628308
0.0580677
0.0606819
0.0582863
0.0580179
0.0632399
0.0653627
0.0704024
0.0681896
0.0741608
0.0760721
0.0781836
0.0808134
0.083856
0.060124
0.0598697
0.0596107
0.0555849
0.0509801
0.0510868
0.0525645
0.0534746
0.0544421
0.0507348
0.0545776
0.332287
0.280528
0.242757
0.220205
0.125446
0.133328
0.147221
0.189091
0.178081
0.162938
0.112964
0.273096
0.326601
0.331985
0.177865
0.194801
0.22557
0.211584
0.0993951
0.0881184
0.0924774
0.089379
0.112206
0.119609
0.105151
0.165273
0.130088
0.137725
0.152394
0.113158
0.473148
0.48228
0.505358
0.0599287
0.0994554
0.0645869
0.0611479
0.0607653
0.066695
0.0651657
0.0716398
0.0720622
0.0693425
0.0750061
0.0783804
0.0814366
0.0646472
0.0625502
0.0620266
0.0576443
0.0568251
0.0527314
0.0522501
0.0541413
0.0559709
0.052582
0.0562116
0.0689927
0.0741641
0.276864
0.245261
0.214982
0.196168
0.120339
0.135278
0.150085
0.170769
0.160963
0.108479
0.0999264
0.0926451
0.0825023
0.0790683
0.316712
0.265745
0.316411
0.271536
0.166291
0.179113
0.192034
0.220965
0.0985759
0.0905874
0.0934059
0.120369
0.112729
0.105503
0.102385
0.152049
0.151899
0.129711
0.141208
0.13685
0.561952
0.53001
0.526489
0.0666816
0.101094
0.0631769
0.0643503
0.0721649
0.0683715
0.0746815
0.0773104
0.0802713
0.0648863
0.0643759
0.059975
0.0586213
0.0573937
0.0549058
0.0544396
0.0561992
0.0607811
0.0546787
0.0761813
0.0696917
0.0729739
0.240222
0.219898
0.193322
0.175527
0.120687
0.137632
0.147274
0.15429
0.11371
0.0996839
0.102293
0.0776867
0.0909418
0.0802071
0.0844412
0.270057
0.251219
0.237679
0.216712
0.160549
0.174382
0.199627
0.149446
0.0968163
0.0934655
0.117314
0.108098
0.113227
0.106384
0.100771
0.142453
0.14388
0.130359
0.109744
0.61574
0.5959
0.586014
0.0835024
0.105973
0.0673839
0.0611347
0.0717548
0.0755903
0.0788869
0.0673075
0.0623843
0.0612879
0.0601526
0.0581436
0.0566672
0.0559436
0.0586228
0.0562867
0.0741112
0.0703321
0.211557
0.215162
0.197772
0.17387
0.157331
0.127472
0.135488
0.140605
0.116536
0.110487
0.102395
0.078811
0.0817585
0.0956394
0.0849412
0.0893226
0.224162
0.214856
0.211726
0.196732
0.140615
0.162656
0.171076
0.151435
0.194424
0.0963315
0.12077
0.11463
0.111044
0.10422
0.0994698
0.123612
0.130032
0.131213
0.115781
0.730904
0.687045
0.732807
0.133446
0.0708365
0.0790684
0.0747129
0.0781533
0.0650864
0.063498
0.0619533
0.0605186
0.0588307
0.0584205
0.0597705
0.0587531
0.0741441
0.0679301
0.194005
0.195429
0.176158
0.155573
0.1426
0.125506
0.129216
0.116374
0.108725
0.101897
0.0777907
0.0812213
0.0959921
0.0856277
0.0902391
0.196333
0.189997
0.172801
0.126195
0.132678
0.142127
0.150054
0.175249
0.112162
0.107061
0.101981
0.117577
0.11505
0.122635
0.126162
0.855465
1.17256
0.321276
0.0750185
0.0880327
0.0781146
0.0665036
0.0650156
0.0628517
0.0610202
0.0603374
0.0622028
0.0711032
0.0691893
0.175154
0.173412
0.156032
0.141084
0.130885
0.119481
0.111175
0.103882
0.0975483
0.0744834
0.0782483
0.0918788
0.0823183
0.0868735
0.171672
0.173264
0.15635
0.127904
0.133963
0.140934
0.12328
0.155991
0.108651
0.104318
0.112294
0.113359
0.118378
0.198968
1.66902
1.61405
0.579399
0.0800978
0.122166
0.0672455
0.0655821
0.0627094
0.0633864
0.0690109
0.0726282
0.0706923
0.156781
0.156541
0.14143
0.129762
0.12095
0.112623
0.105219
0.0989907
0.0758741
0.079843
0.0932561
0.0837555
0.0884257
0.154182
0.154669
0.142085
0.125249
0.129737
0.118804
0.141626
0.106208
0.10896
0.109898
0.112766
4.05669
0.331479
2.33327
2.47956
1.16864
4.49716
0.0682296
0.0658028
0.0670722
0.0668072
0.0772302
0.0734344
0.0713263
0.139985
0.140841
0.130337
0.120652
0.112196
0.10549
0.0990715
0.0773421
0.0806352
0.0940963
0.08502
0.088967
0.13751
0.137775
0.13022
0.119148
0.112973
0.127974
0.130351
3.27153
3.60124
0.636057
3.59976
3.58055
4.88537
3.96702
6.43347
0.0691853
0.0659336
0.0704062
0.0706079
0.0943603
0.0744883
0.0709335
0.13114
0.130744
0.120701
0.112466
0.105464
0.0995873
0.0780783
0.0817625
0.094423
0.089892
0.0856633
0.129611
0.122246
0.113346
0.120803
0.12326
0.122457
2.21222
2.86047
3.1805
1.20766
4.5139
3.4814
6.19977
6.25904
0.070938
0.0705046
0.0754158
0.135025
0.075358
0.0715699
0.11844
0.118977
0.11166
0.104913
0.0994222
0.0779733
0.0825347
0.094641
0.0904024
0.0862713
0.122343
0.115437
0.116252
0.11843
0.116892
0.116214
1.93728
1.80941
2.49649
2.78399
3.44191
5.86277
4.10791
3.02866
5.86347
6.05943
0.073159
0.0746838
0.0803166
0.074493
0.0754619
0.0775514
0.114041
0.106965
0.102066
0.0968117
0.0814783
0.0818164
0.093736
0.0890156
0.086767
0.115173
0.112629
0.113614
0.1119
0.110957
1.52358
1.47746
2.16397
2.39508
6.31117
2.98057
5.59509
5.42184
3.68321
2.58967
5.49493
5.85212
0.0749061
0.0774223
0.0775026
0.0788067
0.08198
0.109998
0.105375
0.101391
0.0970385
0.0836362
0.0848372
0.093675
0.0902977
0.0875763
0.109164
0.10728
0.105298
6.14491
1.1936
1.20099
1.84525
1.98291
5.89588
2.58184
5.25534
5.15502
4.96537
3.23828
2.13122
5.09617
5.64056
0.0772129
0.0780771
0.0802055
0.0816229
0.104231
0.102421
0.0998776
0.0967542
0.0841733
0.0862864
0.0938316
0.0910669
0.0885802
6.72988
5.57148
0.933854
0.961249
1.51148
1.46814
5.4322
2.22685
5.10352
4.80234
4.70471
4.4913
2.74401
1.57427
4.65409
5.42217
7.7171
6.19538
5.002
0.725556
0.737597
1.09829
0.598975
4.94384
1.8898
4.96087
4.68325
4.35594
4.2449
3.98907
2.11198
0.670418
4.12936
5.19123
8.45737
7.3183
5.61851
4.43875
0.548712
0.491797
0.398222
4.43002
1.55547
3.49725
4.6509
4.26062
3.91307
3.76492
3.4256
1.04655
3.41794
9.87246
7.99181
6.84967
5.00469
3.87343
0.367036
0.127277
3.86012
1.36406
2.74106
3.05127
4.32778
3.83794
3.46232
3.23616
2.71333
2.17233
11.1922
9.11897
7.5554
6.31342
4.36292
3.27771
0.0831667
3.12343
1.42683
2.37753
2.62959
3.98907
3.40449
2.97513
2.57802
1.51252
11.8836
11.1961
8.24738
7.11914
5.67991
3.68154
2.56269
1.7201
1.3082
1.2781
2.05786
2.21896
3.62354
2.93443
2.37933
1.48393
12.179
11.5545
10.9892
7.35508
6.64388
4.90844
2.8918
1.35745
1.48532
1.19871
1.14328
1.76404
1.80814
3.20567
2.35855
1.39303
8.19642
12.1421
11.0019
10.5334
6.45794
6.09161
3.95759
1.65784
1.59759
1.38046
1.09211
1.01802
1.48132
1.38834
2.6678
1.41463
6.91011
8.08141
11.8256
10.2442
9.87979
5.55296
5.28139
2.57461
1.60919
1.48252
1.27297
0.984509
0.895793
1.19458
0.94873
1.76087
6.28252
6.61595
7.74804
11.2332
9.30126
9.05256
4.81222
3.46515
1.51209
1.49312
1.36503
1.15974
0.870529
0.763074
0.869626
0.468583
6.29761
6.09936
6.19568
7.24984
10.4066
8.29901
8.02688
3.5479
1.33094
1.40528
1.37474
1.24212
1.03567
0.740163
0.587248
0.403888
6.85076
6.09717
5.78426
5.70208
6.63194
9.25198
7.27731
6.53067
1.42725
1.21903
1.29609
1.25101
1.10841
0.889601
0.566534
0.262906
8.05952
6.54313
5.77165
5.3792
5.15303
5.89783
7.74773
5.84125
2.64733
1.27946
1.1104
1.1813
1.1165
0.952127
0.690988
0.250282
12.0172
7.92276
6.12238
5.36183
4.89981
4.53897
4.98449
6.14589
3.54064
2.30457
1.14515
1.00096
1.05558
0.959372
0.741554
0.334337
11.7863
12.0196
7.56543
5.63287
4.88041
4.3386
3.81607
3.69407
4.95579
3.08134
1.99858
1.02014
0.884988
0.907651
0.747868
0.371164
11.0994
11.4998
11.7693
7.04213
5.08928
4.31795
3.65253
2.89349
5.13982
4.64469
2.649
1.71423
0.89775
0.752482
0.70688
0.377012
9.7291
11.1082
10.9948
11.3075
6.39755
4.48158
3.62977
2.76197
5.23686
4.71755
4.32288
2.23268
1.43912
0.764238
0.576739
0.348484
8.40319
8.96462
10.9085
10.288
10.6319
5.62447
3.75693
2.72941
5.56601
4.78083
4.29231
3.98429
1.81899
1.15964
0.587421
0.259308
7.78538
7.93321
8.09683
10.4993
9.46948
9.69883
4.69105
2.80345
5.85945
5.12649
4.33425
3.86746
3.61859
1.39803
0.842269
0.262831
6.75479
7.38169
7.4852
7.17622
9.87232
8.57646
8.2707
3.58454
6.65192
6.26586
5.42402
4.67817
3.89324
3.43177
3.19906
0.952073
0.382994
6.13706
6.21866
6.91596
7.01475
6.21067
8.9762
7.60584
5.67273
5.08209
6.44225
5.9382
4.97175
4.22038
3.44411
2.95767
2.65517
0.45613
6.2494
5.56188
5.6354
6.38896
6.51552
5.1961
7.65274
6.02854
3.4096
4.53493
4.6855
6.22472
5.56938
4.49915
3.74174
2.95725
2.37297
1.72594
5.84687
4.99014
5.01532
5.74337
5.93696
4.34507
5.36593
2.94578
2.06776
4.31045
4.02625
4.25827
6.00308
5.167
3.99661
3.21278
2.36032
1.40388
2.44253
3.5628
5.39495
4.42543
4.37028
4.96642
5.1359
3.1755
2.53889
1.63347
3.82463
3.5458
3.81477
5.77775
4.71747
3.43127
2.55261
1.35587
1.98651
3.13539
4.91496
3.86028
3.68707
4.00682
3.44995
2.18667
1.28412
3.3776
3.09102
3.34967
5.54622
4.18045
2.71223
1.43974
1.61981
2.74896
4.4082
3.2655
2.89621
2.62355
1.85772
1.00842
2.9578
2.64631
2.83219
5.30083
3.44665
1.48552
1.31477
2.39051
3.84265
2.55416
1.67436
1.55486
0.786413
2.54664
2.17956
2.16827
2.14588
1.05077
2.04463
3.11231
1.35863
1.36855
0.596471
2.11094
1.60595
1.04409
0.805798
1.68126
1.72981
0.399693
1.56804
0.662583
0.53907
1.23206
0.0959828
0.646701
0.148565
0.474812
0.0862871
0.084341
0.0856279
0.0856374
0.087085
0.0868568
0.0875062
0.0875385
0.0882495
0.082738
0.0838419
0.0842684
0.0854681
0.0857857
0.086933
0.0875458
0.0918809
0.0933111
0.0946489
0.0968905
0.0983424
0.0884445
0.0892436
0.0882735
0.0884319
0.088742
0.0883792
0.0896063
0.089337
0.0903769
0.101032
0.102183
0.0814157
0.0825203
0.083142
0.084232
0.0848572
0.0858043
0.0867988
0.0878895
0.0888485
0.0898277
0.0909303
0.092301
0.0941016
0.0955595
0.0986406
0.10013
0.105625
0.106372
0.0902312
0.0911046
0.0921597
0.0931218
0.0944969
0.0959422
0.0983188
0.0896359
0.0900934
0.0896196
0.0896325
0.0905179
0.0898748
0.0918757
0.0913561
0.0927015
0.0981479
0.0999599
0.11061
0.112278
0.104859
0.104618
0.109689
0.0804117
0.0814366
0.0823019
0.0833109
0.084261
0.08526
0.0864637
0.0873955
0.0891242
0.0902097
0.091674
0.0929617
0.0969605
0.0983727
0.101494
0.102633
0.107157
0.108417
0.113548
0.115691
0.122051
0.122155
0.129137
0.0910776
0.0918023
0.0927634
0.0937817
0.0952513
0.0908136
0.0910864
0.0911648
0.090853
0.0924218
0.0916466
0.09512
0.094064
0.0933457
0.0956637
0.0993136
0.0995424
0.104589
0.106215
0.12575
0.113784
0.121418
0.110558
0.113457
0.0800085
0.0809386
0.0820812
0.0830781
0.0843406
0.0852569
0.0867465
0.0876485
0.0892609
0.090224
0.092466
0.0945945
0.102685
0.0998976
0.106143
0.108638
0.113108
0.114596
0.119473
0.129208
0.134854
0.135693
0.14941
0.152029
0.145713
0.154238
0.154841
0.196014
0.0920559
0.0928141
0.0936341
0.0945892
0.097469
0.096225
0.0920967
0.0921329
0.092779
0.0923016
0.0952382
0.0942256
0.093481
0.0996736
0.0983496
0.0959512
0.0983928
0.100291
0.24859
0.214683
0.307488
0.104698
0.105011
0.110536
0.11277
0.127334
0.129428
0.165292
0.144541
0.121868
0.127901
0.0807283
0.0813201
0.0829425
0.0835421
0.0853477
0.0858823
0.0878909
0.0886205
0.0918311
0.0910769
0.0953532
0.096751
0.101614
0.103943
0.113454
0.111652
0.120889
0.129722
0.136693
0.137458
0.149306
0.714284
0.702325
0.493806
0.162272
0.171089
0.186374
0.192673
0.202501
0.217814
0.218416
0.491381
0.292942
6.43668
7.00323
6.85418
6.54124
7.1633
7.18525
6.95667
6.58397
0.0931956
0.0935565
0.0945593
0.0954933
0.0971855
0.0961145
0.0934788
0.0932971
0.0952796
0.0944604
0.093942
0.1019
0.100516
0.0992004
0.0980618
0.0967055
0.0996352
0.105662
0.101571
0.10496
6.03554
5.06805
1.86204
1.31919
0.772753
0.174778
0.249504
0.305554
0.565007
0.112773
0.113134
0.114128
0.113681
0.125752
0.127832
0.139651
0.136018
0.16406
6.22899
6.91995
4.54358
7.14395
7.20556
7.19013
5.44573
6.07981
6.16807
7.17436
0.0869254
0.0845197
0.0886477
0.0873107
0.0910619
0.0900627
0.0936914
0.0935203
0.0966622
0.0964377
0.100488
0.100451
0.108249
0.111127
0.11676
0.11576
0.121462
0.146926
0.124663
0.159772
0.211176
0.203536
0.247648
0.248805
0.243996
1.27996
1.7863
3.41992
2.485
1.29575
0.996548
0.356831
0.39492
0.499071
0.505269
1.02148
0.59622
0.580123
3.8866
6.05852
4.96648
5.26913
6.15796
6.68945
6.92234
6.91536
4.97651
4.92447
7.12847
7.0824
5.57456
5.79453
6.38366
7.01981
6.60005
6.96492
0.0944606
0.0946745
0.0955555
0.0968506
0.0972286
0.0962144
0.0957139
0.0950037
0.0946376
0.103986
0.102515
0.101115
0.0999382
0.0988843
0.0978917
0.0975093
0.100507
0.100881
0.104795
0.105298
0.109674
0.104598
2.68324
4.52679
3.52995
5.91344
4.61561
1.67626
2.70589
1.43473
0.753197
0.113074
0.609781
0.200042
0.348393
0.256078
0.123444
0.120205
0.129139
0.124234
0.132157
0.130888
0.14906
0.14315
0.200295
6.24613
7.08761
5.94623
4.28839
4.70113
3.6518
7.32327
7.42719
7.24733
5.99557
4.52759
5.61515
0.188884
0.103197
2.10973
0.646768
0.135772
0.105391
0.124298
0.105217
0.119368
0.104654
0.11785
0.112416
0.109863
0.121428
0.120473
0.143042
0.17603
0.165016
0.201396
0.283347
0.252549
0.33669
0.661777
0.377541
0.407569
0.903213
1.02974
0.552179
0.485841
0.655991
0.633704
0.798831
0.799635
1.92837
2.54663
3.68256
2.97793
2.08544
1.51566
1.16539
1.16966
1.75754
1.31105
1.42957
4.93823
4.32165
5.15438
6.16896
5.86737
6.84944
6.6455
7.10531
7.01157
7.05403
5.21968
5.77625
6.98964
7.00391
6.84506
6.81273
6.51187
0.0976844
0.0956962
0.0957571
0.0966032
0.0971998
0.0964498
0.0961672
0.0983369
0.106113
0.104606
0.103011
0.101721
0.100582
0.0994377
0.0988004
0.0978644
0.108095
0.10574
0.107976
0.110326
0.108803
0.110229
0.101442
0.10134
0.101777
0.103445
0.113985
0.108273
0.109727
0.105466
4.62903
4.09863
3.03557
0.983991
2.53517
1.74132
0.119394
0.132991
0.131766
1.09838
0.262729
0.561261
0.364689
0.144203
0.139835
0.152588
0.148582
0.176072
0.165113
0.276757
4.41601
6.61346
7.22243
6.23293
5.30808
7.45528
3.35633
3.90478
2.72581
7.66183
7.44967
6.66574
5.50141
3.99905
4.73822
4.74115
1.19313
0.340601
4.56658
3.5841
0.686571
0.335026
0.52165
0.254498
0.401574
0.216291
0.342383
0.182605
0.24758
0.445933
0.780357
0.554904
0.962929
0.620957
0.758352
1.34628
1.67199
1.83002
1.18534
1.19743
1.86089
2.09379
1.24464
1.37537
1.67302
1.58404
1.95974
1.67442
3.94899
2.7661
3.31102
3.14306
2.68358
2.53665
2.90862
2.19
2.70118
5.38828
4.52421
6.74382
6.05929
6.36821
7.07478
6.9726
6.92088
7.00083
6.52552
6.61299
0.10997
0.108458
0.0970655
0.0982453
0.097538
0.0969995
0.0970138
0.0985746
0.0997016
0.104782
0.102922
0.102217
0.10075
0.100235
0.0991504
0.0988472
0.098096
0.106734
0.104837
0.105984
0.107102
0.105414
0.106762
0.101122
0.101722
0.103054
0.105616
0.120598
0.113695
0.114765
0.108649
1.79928
2.65257
3.5283
0.129592
0.142667
0.141392
0.163919
0.159358
0.784399
1.83948
0.360426
0.709634
0.198834
0.182709
0.274118
0.236287
0.3697
3.59633
5.12921
4.76321
6.87867
6.98519
7.36273
7.79146
7.71956
2.65446
3.60149
7.40817
6.47095
5.72584
4.05162
4.76336
4.77063
2.08617
4.79457
5.11649
5.63872
3.79041
2.39505
5.78656
6.27725
3.38036
1.73733
2.62095
1.23126
2.01868
1.02316
1.35974
1.58028
1.20697
2.18787
1.79533
1.73111
1.70382
1.8258
2.77655
2.871
2.99914
3.31604
2.53547
2.37392
3.40255
3.59098
2.57462
2.82576
3.30461
3.11553
3.49678
4.70711
4.18894
4.54794
3.71752
4.2635
4.23148
3.98995
4.41058
6.37099
5.70613
6.97038
6.81783
6.91111
6.92571
6.3519
6.45612
0.111828
0.109318
0.107507
0.106011
0.0985782
0.09843
0.098741
0.0995364
0.100673
0.103867
0.102438
0.101764
0.100651
0.100238
0.0994199
0.0994636
0.103702
0.104573
0.103088
0.104272
0.103446
0.104478
0.102064
0.102168
0.104019
0.109967
0.105686
0.102593
0.130489
0.121548
0.122581
0.115444
0.138611
3.15809
2.29798
0.154923
0.1516
0.18491
0.179439
0.263983
0.313103
0.249637
0.791126
2.07736
0.956668
0.499651
0.417636
0.863308
5.07862
4.2332
7.38299
6.75884
7.96133
7.8473
7.56315
7.28704
6.88241
6.53762
0.210606
0.705423
4.68024
5.55238
1.28232
3.89431
5.77807
5.47017
6.3083
6.05825
5.52901
6.2089
5.92858
5.31234
5.37355
3.55651
4.28992
3.29622
2.92013
2.89791
4.23712
3.34014
4.1859
3.51523
3.69379
4.28954
4.65814
4.60084
4.71075
4.25135
4.11745
3.76085
4.91974
5.0925
4.25943
4.44541
5.1151
5.01041
5.81462
6.07974
5.63451
5.50585
5.80963
5.48515
5.69657
6.82097
6.70117
6.68304
6.72439
6.07269
6.17584
0.0883021
0.109392
0.112428
0.111046
0.109207
0.106993
0.105569
0.104043
0.09964
0.0998219
0.100171
0.100278
0.102631
0.102369
0.101657
0.10091
0.10042
0.100059
0.101264
0.102194
0.101461
0.102485
0.102115
0.103026
0.102249
0.10626
0.107075
0.116213
0.105179
0.106731
0.142508
0.126357
0.130055
0.117108
0.159458
0.186346
0.168496
4.47253
2.79471
0.249558
0.210171
0.489535
0.407477
1.21348
1.04747
0.887005
2.33115
3.05987
1.65935
7.341
6.22788
8.09333
8.20952
7.95473
7.56039
7.1019
6.74548
0.148083
0.453092
4.10852
6.35624
0.844067
2.38455
6.33674
6.15553
5.94289
6.54582
6.07198
5.58294
6.94268
6.23703
6.87163
6.45778
6.0447
6.0367
5.64039
4.70232
4.75381
5.93685
5.41727
5.1684
5.39507
5.61133
5.49954
5.75627
5.68181
5.63631
5.58205
5.88738
5.13189
5.41424
5.92289
5.91076
5.63844
5.73404
6.03612
6.0762
6.29364
6.22851
6.63622
6.40248
6.38113
6.46154
6.51001
5.76719
5.92006
0.0812906
0.085133
0.0894877
0.108558
0.111028
0.110167
0.108877
0.108317
0.106996
0.105156
0.102738
0.104171
0.107606
0.108723
0.101439
0.100386
0.0997168
0.0998966
0.100681
0.0999316
0.0998272
0.100272
0.100896
0.100628
0.101576
0.101466
0.102139
0.103058
0.105524
0.108875
0.114511
0.117225
0.110767
0.138995
0.163063
0.125617
0.142356
0.177392
0.231748
0.201116
0.251985
0.390175
0.285174
6.40968
5.35298
1.12033
0.821095
2.52847
1.97494
4.38461
5.8018
3.95302
8.41061
8.36462
8.4984
8.0178
7.69719
7.18756
0.133043
0.32015
3.27291
6.2165
0.559012
1.58579
6.09928
6.91297
5.33415
5.50437
6.67881
5.91882
6.84427
6.61166
5.25082
5.76541
6.50704
6.38545
6.50634
6.22891
6.43504
5.79606
5.99378
6.12458
6.12146
5.87723
5.92117
5.76597
5.79617
5.75971
5.65377
5.70005
5.57784
5.42399
5.41722
5.94663
5.93561
5.9671
5.85126
6.00695
5.95786
5.98475
5.86711
5.99549
6.23254
6.29565
6.00666
5.58516
5.75056
0.0798483
0.0815236
0.0836167
0.0882571
0.091621
0.107687
0.107288
0.106747
0.105892
0.105941
0.101945
0.103819
0.103085
0.104861
0.105327
0.105129
0.104387
0.105593
0.103394
0.103374
0.101401
0.101474
0.103491
0.100558
0.100018
0.100392
0.100161
0.101776
0.100291
0.100535
0.100848
0.101112
0.101416
0.101964
0.102342
0.105693
0.111399
0.107698
0.115573
0.124366
0.122101
0.130376
0.15836
0.182846
0.142622
0.161716
0.211097
0.277995
0.677848
0.612304
0.482445
0.912351
1.83698
1.7977
8.61386
7.78274
4.25661
4.43252
6.74636
7.9163
6.74962
9.19716
8.70625
8.47038
8.0295
0.125643
0.245118
2.48002
5.1147
0.386172
1.08094
5.20512
7.04072
5.64777
5.15748
6.79148
6.34771
5.66364
5.30645
4.96192
4.94012
6.01052
6.12607
5.2082
5.65345
5.40153
5.83874
5.75964
5.79523
5.78941
5.42198
5.45123
5.0148
5.00209
4.89222
5.17015
4.77339
4.62974
4.06488
3.69967
4.3669
4.45233
5.39136
5.81349
5.81675
5.30359
5.40213
5.45342
5.40788
5.0427
5.47729
0.105071
0.0799021
0.0806986
0.0819029
0.0839149
0.0863058
0.0905878
0.094138
0.0809469
0.080973
0.0825053
0.0822591
0.0844167
0.0837397
0.0994837
0.0998617
0.0976154
0.0980874
0.0956136
0.0962183
0.0934582
0.0942582
0.0866425
0.0856737
0.0889931
0.0876983
0.0912485
0.0921057
0.089899
0.104495
0.103983
0.103446
0.103806
0.102818
0.102498
0.103224
0.102315
0.102511
0.101934
0.103083
0.100439
0.100736
0.0985459
0.0988951
0.102416
0.100982
0.102224
0.100842
0.1016
0.101813
0.101609
0.101807
0.102011
0.102693
0.103012
0.103096
0.102795
0.103466
0.109278
0.105128
0.118748
0.112479
0.123782
0.13752
0.132971
0.148667
0.186451
0.234979
0.167885
0.200839
0.291719
0.634393
3.15955
2.39095
3.23166
1.46425
3.13958
5.22048
6.02622
9.54508
9.41752
8.34026
9.47928
8.52953
9.66736
8.84852
0.118859
0.195778
4.6084
1.71751
2.76449
0.285452
0.752071
6.18859
6.87955
5.79505
5.2049
6.58348
6.13346
6.62714
4.77331
4.68333
4.68901
5.27871
5.18847
4.4267
4.66448
4.68004
4.42977
4.8523
4.99539
4.53549
4.47188
4.07624
4.01878
3.5398
3.60943
3.83243
2.86453
2.8775
2.57343
2.58363
3.31438
4.8583
4.73305
3.61391
4.17996
4.02272
0.10527
0.0928438
0.0963917
0.0817871
0.0827009
0.0843154
0.0865935
0.0892378
0.0826015
0.0829233
0.0837862
0.083849
0.085261
0.085177
0.0966906
0.0972924
0.0948327
0.0956538
0.0928281
0.0938449
0.0907287
0.0920255
0.0870413
0.0866911
0.0887904
0.0901217
0.0883467
0.102435
0.101959
0.10172
0.102488
0.102298
0.100005
0.100502
0.100096
0.10115
0.0982451
0.0987096
0.0964143
0.0969364
0.102126
0.102778
0.102457
0.104147
0.103579
0.103978
0.104323
0.103831
0.104638
0.10574
0.104368
0.104615
0.104146
0.112445
0.107892
0.108363
0.126965
0.117304
0.133936
0.156721
0.151241
0.177425
0.208724
0.422202
0.204748
0.275036
0.614678
1.98459
6.16295
6.89818
6.06247
7.30917
3.95677
6.79808
8.47471
9.42184
10.4169
10.19
10.2428
0.11645
0.146167
0.201123
2.9234
4.90774
1.11625
2.17677
0.444582
5.46923
6.40793
5.35445
4.77203
5.88372
5.50214
6.33775
6.47718
6.05853
5.81056
4.21264
4.36549
4.3934
4.28831
3.9438
4.01381
3.92847
3.81743
3.96295
3.987
3.62789
3.60148
3.11154
3.19172
2.53065
2.64743
2.09499
2.14644
1.90781
1.82293
3.29192
1.83747
2.80775
4.94073
0.095931
0.101721
0.0893541
0.0931173
0.0838992
0.0852509
0.0871845
0.0845423
0.0849119
0.0854588
0.085541
0.0866525
0.0866525
0.0947541
0.0953831
0.0931137
0.0938996
0.0913907
0.0922767
0.0897604
0.0908067
0.0882043
0.0893009
0.0879217
0.10093
0.100875
0.100873
0.100672
0.0982255
0.0990551
0.098776
0.100148
0.0965681
0.0972838
0.09495
0.095669
0.102735
0.102123
0.104913
0.103949
0.109265
0.107569
0.11033
0.109464
0.106664
0.107689
0.110607
0.108404
0.106325
0.112142
0.107604
0.107722
0.121206
0.120614
0.139317
0.13718
0.174928
0.171521
0.232778
0.19778
0.317511
0.726351
0.261725
0.399894
1.72441
4.21674
6.44803
9.49204
9.57017
9.58295
9.76851
10.7105
10.6691
10.9651
0.710106
0.106108
0.110523
0.137698
0.181281
0.331582
3.99341
1.6155
2.42624
5.61025
4.40933
4.37389
4.83354
5.62522
6.04333
4.82457
5.30258
6.14282
6.08719
5.61302
5.18769
3.78876
3.97596
3.62136
3.6396
3.52901
3.54845
3.41325
2.95362
3.22987
3.19764
2.44863
2.63794
1.98454
2.15576
1.63659
1.75711
1.49815
1.47356
0.0939351
0.0973921
0.0864628
0.0881776
0.0909568
0.0863005
0.087763
0.087014
0.0874329
0.0878743
0.0879425
0.0933339
0.0942506
0.0916771
0.0929246
0.0903373
0.0914922
0.0890373
0.0902301
0.0890405
0.101338
0.0999623
0.100114
0.100505
0.0973036
0.0981382
0.0998358
0.0982539
0.0957118
0.0966617
0.0943773
0.0951852
0.105275
0.104024
0.104053
0.107984
0.106117
0.114915
0.114256
0.113485
0.115835
0.122424
0.119665
0.120131
0.117331
0.116247
0.11235
0.110089
0.12013
0.116744
0.123324
0.147171
0.136949
0.216527
0.217162
0.17049
0.202764
0.311745
0.314443
1.00352
2.03287
0.893156
3.81004
5.77926
7.69223
10.4293
11.7991
11.5335
11.4769
1.49627
2.00918
0.100004
0.539433
1.0268
0.107897
0.112765
0.120888
0.153772
0.195451
0.316043
3.90101
3.15441
5.579
5.13491
3.91079
4.27559
5.87293
5.97453
4.28943
4.80379
5.75772
5.5894
4.93948
3.37366
3.55624
2.95519
3.10184
3.11387
2.96439
2.5239
2.658
2.09081
2.27475
1.75617
1.89739
1.43175
1.60797
0.0965885
0.0890761
0.0922407
0.0943766
0.0947062
0.0884558
0.0900389
0.0886776
0.0895391
0.0893462
0.0896051
0.0927244
0.0938908
0.0916055
0.0925775
0.0904044
0.0914575
0.0903343
0.0943907
0.100275
0.100002
0.101444
0.0992535
0.0981083
0.097025
0.101699
0.0971245
0.0962065
0.0961251
0.105105
0.103394
0.106927
0.10955
0.109694
0.114794
0.113568
0.12317
0.125327
0.128374
0.12729