/*--------------------------------*- C++ -*----------------------------------*\
  =========                 |
  \\      /  F ield         | OpenFOAM: The Open Source CFD Toolbox
   \\    /   O peration     | Website:  https://openfoam.org
    \\  /    A nd           | Version:  8
     \\/     M anipulation  |
\*---------------------------------------------------------------------------*/
FoamFile
{
    version     2.0;
    format      ascii;
    class       volScalarField;
    location    "16000";
    object      p;
}
// * * * * * * * * * * * * * * * * * * * * * * * * * * * * * * * * * * * * * //

dimensions      [0 2 -2 0 0 0 0];

internalField   nonuniform List<scalar> 
4109
(
-0.00552569
-0.0177854
-0.00879468
-0.0287613
-0.0299018
-0.0185349
-0.0287137
-0.0146655
-0.0392321
-0.0397014
-0.0390226
-0.0429673
-0.00912983
-0.0228966
-0.0317834
-0.0463742
-0.0507361
-0.0467463
-0.0451164
-0.0419988
-0.00271971
-0.0324541
-0.0327696
-0.0537998
-0.0546436
-0.0622764
-0.00303788
-0.0082535
-0.00559295
-0.0520838
-0.045617
-0.0470736
-0.0299939
-0.0869049
-0.0618531
-0.0572754
-0.0622791
-0.0762934
-0.0165256
-0.00504047
-0.000179582
-0.0132379
0.000369618
-0.0561605
-0.051869
0.0902565
-0.0558646
-0.0471486
-0.0551006
-0.0764547
-0.0683478
-0.0659183
-0.0717155
-0.0884871
-0.0239571
-0.0109578
-0.00519457
0.0150104
-0.00958
-0.0210131
-0.067825
0.0650809
-0.061706
-0.0562667
-0.0523838
-0.033733
-0.0585371
-0.0520054
-0.0577899
-0.0537262
-0.105414
-0.0804827
-0.125727
-0.125605
-0.127187
-0.0299462
-0.0327435
-0.023142
-0.0123223
-0.0206135
-0.0117987
-0.0150719
-0.0160027
-0.0261674
0.0156333
-0.206773
0.123734
-0.236288
-0.00806532
-0.0812757
-0.0713066
-0.0615895
-0.0557945
-0.0534252
-0.0541268
0.0316236
-0.0531065
-0.062073
-0.125483
-0.108883
-0.0979333
-0.139534
-0.137424
-0.145647
-0.151146
-0.0344198
-0.0374092
-0.0398955
-0.02305
-0.00477354
0.063941
-0.0153723
-0.0156202
-0.0236571
-0.0302101
-0.578979
0.112121
0.0118652
-0.0055207
-0.30973
-0.120351
0.261542
-0.0883534
-0.0778322
-0.0696308
-0.0563413
-0.0551358
-0.0465282
-0.074453
-0.0633387
-0.057019
-0.119958
-0.111704
-0.148663
-0.133548
-0.178183
-0.166576
-0.0415835
-0.0475513
-0.0504067
-0.0340102
0.00853226
0.0595775
-0.0129587
-0.0243092
-0.027157
-0.0345264
0.0879738
0.082016
-0.215357
-0.100514
-0.137525
0.0954431
-0.0863065
-0.0842294
-0.0757828
-0.0602051
-0.0487094
-0.0438272
-0.0397035
-0.00610271
-0.0286971
-0.109051
-0.100066
-0.148144
-0.123475
-0.166364
-0.181522
-0.2148
-0.0519673
-0.0580878
-0.0627321
-0.0508988
0.00797098
0.0295635
-0.0198837
-0.0237479
-0.0259048
-0.0427724
0.0191884
-0.15806
0.0161763
-0.0697282
-0.0838379
-0.021845
-0.0804207
-0.0853662
-0.0724399
-0.0459798
-0.0461517
-0.0282173
-0.0139118
-0.0107763
-0.0931424
-0.100554
-0.138662
-0.112061
-0.157518
-0.185378
-0.216396
-0.256855
-0.0662883
-0.072466
-0.075643
-0.0670117
-0.015735
0.00397989
-0.0100927
-0.0119403
-0.024168
-0.0567761
-0.0928408
-0.10366
-0.0847227
-0.0154761
-0.0943678
-0.0462693
-0.0769239
-0.0783217
-0.0945994
-0.0488304
0.0960173
0.066723
-0.0808857
-0.0860712
-0.127786
-0.0968504
-0.147419
-0.178902
-0.215677
-0.256422
-0.302679
-0.0824321
-0.08663
-0.0872461
-0.080062
-0.00853348
0.0294169
0.00992538
0.0132248
-0.0989339
-0.038144
-0.0735738
-0.0638709
-0.0630824
0.0545229
-0.138858
-0.20895
-0.0525879
-0.0851632
-0.0605311
-0.0901956
0.0603802
0.0674127
-0.0634468
-0.06567
-0.111739
-0.0768439
-0.131143
-0.169941
-0.206606
-0.249162
-0.298436
-0.349613
-0.104188
-0.0950417
-0.0917922
-0.116267
0.0209763
0.101309
-0.0172968
-0.113173
-0.0906187
-0.0616239
-0.175215
-0.129487
-0.23125
0.0634225
-0.197119
0.0100988
1.07812
-0.0566728
-0.0104108
-0.337651
-0.0965814
-0.053761
-0.0292521
-0.0864202
-0.0444916
-0.109018
-0.153138
-0.196187
-0.237448
-0.285905
-0.333443
-0.370402
-0.383066
-0.113515
-0.116782
-0.108163
-0.134044
-0.130457
0.0198042
0.100876
-0.0553846
-0.107428
-0.0841785
-0.0650634
-0.222336
-0.0284161
-0.0484415
0.402638
0.0500923
1.084
1.12375
1.13627
1.02866
1.0289
0.970485
-0.661721
-0.24925
-0.148247
-0.112638
0.0145439
-0.0465859
-0.0389329
-0.0807558
-0.132179
-0.178205
-0.371172
-0.226213
-0.272028
-0.322451
-0.394568
-0.400794
-0.411596
-0.386527
-0.136855
-0.136382
-0.153331
-0.148373
-0.125029
-0.0256106
-0.0109108
-0.0909369
-0.103886
0.335377
0.118107
1.01255
-0.105044
1.19987
1.1636
1.16968
1.07778
1.19671
1.21869
-0.314783
-0.362354
-0.329407
0.946705
0.922034
0.99309
0.909685
1.01661
0.109371
0.16456
0.160872
0.0233277
-0.0275497
-0.399232
-0.104888
-0.109159
-0.155313
-0.204949
-0.360138
-0.261023
-0.31095
-0.437767
-0.419114
-0.424729
-0.437655
-0.42732
-0.437958
-0.166429
-0.159359
-0.174225
-0.165189
-0.141976
-0.122675
-0.0966727
-0.153456
-0.104095
0.778512
0.616141
1.24483
1.2321
1.15622
1.27709
1.3057
-0.247356
-0.192464
-0.194942
-0.484509
-0.31948
0.827182
0.812183
0.842598
0.942132
1.08288
-0.0893357
0.44598
0.435819
0.0322322
-0.0790075
-0.394407
-0.421
-0.114748
-0.131121
-0.173927
-0.234484
-0.35441
-0.302889
-0.473086
-0.451149
-0.484174
-0.474643
-0.518133
-0.597452
-0.197835
-0.185642
-0.120147
-0.203044
-0.17857
-0.158225
-0.138436
-0.223364
-0.108684
-0.0777725
-0.104794
-0.263086
1.20509
1.32598
1.32306
1.23149
1.37115
1.40721
-0.797865
-0.0184782
0.187975
-0.0813498
-0.097384
0.629662
0.410321
-0.31365
-0.168709
0.716411
0.842832
0.987758
1.16514
-0.155459
0.0240039
0.132125
-0.0274417
-0.101802
-0.401099
-0.445939
-0.129039
-0.14427
-0.191906
-0.269607
-0.354574
-0.528409
-0.491498
-0.552951
-0.553534
-0.655171
-0.867501
-0.231867
-0.244691
-0.215941
-0.123046
-0.134628
-0.174414
-0.193918
-0.150503
-0.245194
-0.215725
-0.521886
-0.250517
-0.239587
-0.0475258
1.25022
1.2337
1.16554
1.42906
1.42572
1.32477
1.48589
1.53934
-0.632208
-1.19533
0.0453323
0.20032
0.0721218
0.402791
0.58433
-0.0991599
0.013283
0.711794
0.870678
1.07814
1.27829
-0.257094
-0.225593
-0.229261
-0.0576171
-0.0470682
-0.101542
-0.414465
-0.477225
-0.136766
-0.160902
-0.225902
-0.323471
-0.539996
-0.597728
-0.643857
-0.667024
-0.869588
-1.17167
-1.45114
-0.269795
-0.28237
-0.145785
-0.140711
-0.165204
-0.185282
-0.209467
-0.281752
-0.242483
-0.202734
-0.0787312
0.366402
1.32569
1.30237
1.23985
1.0701
1.16192
1.5499
1.5508
1.43841
1.5998
1.631
-0.393968
-0.998013
-1.71281
0.550723
0.253592
0.35327
0.12976
0.184845
0.731271
0.967513
1.22462
1.41151
0.302617
-0.185624
-0.25217
-0.261224
-0.101219
-0.0214347
-0.0522458
-0.394256
-0.478097
-0.198773
-0.135462
-0.285965
-0.568179
-0.664033
-0.756281
-0.829964
-1.09996
-1.38841
-1.76809
-2.05812
-0.315259
-0.320712
-0.120819
-0.147881
-0.166032
-0.187195
-0.223564
-0.317894
-0.28328
-0.244828
-0.0486606
0.0239523
1.43192
0.967998
1.3417
1.27486
1.1474
1.67648
1.68079
1.56813
1.7225
1.73622
1.70154
-0.11045
-2.17688
-0.695765
-1.36915
0.337163
0.548042
0.369682
0.825025
1.15497
1.38505
1.56226
0.0282239
-0.113713
-0.173902
-0.1415
-0.0751117
0.0937311
0.0345593
-0.481623
-0.371784
-0.264579
-0.182759
-0.601871
-0.736981
-1.00282
-0.873089
-1.30771
-1.96732
-1.6266
-2.26244
-2.50007
-0.359487
-0.356433
-0.355639
-0.134687
-0.155787
-0.195289
-0.246826
-0.320951
-0.282238
-0.0871806
-0.0732841
1.55517
1.43179
0.823158
0.95588
1.3354
1.21942
1.04433
1.79481
1.78986
1.70893
1.84589
1.84022
1.81665
0.159216
-2.72915
-0.336236
-1.78282
-0.950607
0.495316
0.658586
0.394369
1.02793
1.33457
1.55792
1.73006
0.0200443
-0.0202818
-0.0982672
-0.10189
0.029541
0.178456
-0.00220124
-0.511476
-0.358932
-0.268912
-0.680563
-0.836286
-1.16745
-1.00338
-1.55574
-1.96385
-2.3263
-2.73536
-3.09732
-0.400812
-0.393429
-0.395956
-0.364692
-0.142034
-0.163152
-0.218331
-0.280963
-0.323071
-0.076757
-0.042086
1.67774
1.58293
1.51712
1.41461
0.634739
0.815375
0.926462
1.29246
1.15715
1.00566
0.422242
1.88456
1.87229
1.79093
1.85987
1.95489
1.91882
1.95469
0.0572361
-2.27518
-0.508179
-1.31449
0.657104
0.862872
0.4294
1.91292
1.22047
1.53126
1.75986
0.0455871
-0.0418579
-0.082002
-0.0520319
-0.163872
0.0327627
0.0556515
-0.533827
-0.345805
-0.896361
-0.758482
-1.31852
-1.66383
-1.15534
-2.21196
-2.8431
-3.36358
-0.416123
-0.449704
-0.444595
-0.415392
-0.373064
-0.156792
-0.182055
-0.254278
-0.324296
-0.0770594
-0.0296225
-0.396438
-0.339409
1.69519
1.61907
1.50285
1.37962
0.643458
0.811432
0.945436
1.23301
1.0889
0.456424
0.20817
0.00853074
-0.159755
-0.274209
1.91067
1.94413
1.87875
1.80043
2.09572
2.00669
2.03675
2.00007
-0.0355464
-1.73942
-0.792544
1.04827
0.78399
0.642253
0.382539
2.20322
1.98369
1.44658
1.78036
0.0311233
-0.110734
0.0175476
0.498223
-0.351409
-0.0492689
-0.725067
-0.493762
-1.56097
-1.15115
-1.92961
-2.78936
-3.50485
-0.464121
-0.490439
-0.47399
-0.433651
-0.378832
-0.17705
-0.220475
-0.30349
-0.0573668
-0.0712622
-0.333831
-0.440279
-0.370929
1.71408
1.60612
1.47792
1.32235
0.661742
0.834454
1.00275
1.15684
0.497132
0.254815
0.33413
-0.330688
0.0553769
-0.244233
-0.113743
1.89925
1.96492
1.81812
2.0362
2.25053
2.12711
2.0812
2.38181
-0.247188
-1.14012
1.28128
1.15733
1.02126
0.99984
0.32001
2.07157
2.34371
1.78108
0.219203
0.148041
0.901393
0.566191
-0.251421
-0.39129
-0.877453
-0.565327
-1.67142
-2.56347
-3.49929
-0.518995
-0.532491
-0.50535
-0.451429
-0.368814
-0.228817
-0.280306
-0.0935426
-0.106745
-0.410863
-0.520041
1.83138
1.71879
1.58648
1.42854
1.23835
0.691784
0.8846
1.06016
0.535207
0.378915
0.18943
-0.415958
-0.367114
0.0386897
-0.277886
-0.137222
1.92422
2.00416
1.94486
2.12192
2.55427
2.39938
2.23117
2.53105
1.94687
-0.483709
1.71693
1.5908
1.43887
0.940424
0.234371
2.36232
2.20651
2.52623
0.198207
0.635968
2.16073
0.458308
0.476322
-1.23443
-0.769021
-2.15884
-3.33795
-0.586918
-0.581565
-0.544601
-0.462223
-0.297966
-0.362407
-0.155425
-0.149005
-0.52177
-0.627468
1.83649
1.71228
1.55034
1.33489
1.13113
0.739171
0.9355
0.574046
0.382231
0.187981
-0.5034
-0.441035
0.00030454
-0.334041
-0.182899
2.08377
2.02872
2.28306
2.93894
2.71643
2.73417
2.55358
2.00294
1.88103
1.5594
0.983595
2.28398
2.72101
3.0333
0.121133
0.849282
-0.129592
-0.19847
-1.67497
-0.963692
-2.98833
-0.655544
-0.645662
-0.590285
-0.295416
-0.454
-0.346234
-0.647981
-0.720219
1.69424
1.84753
1.45845
1.20407
0.998567
0.783563
0.603369
0.395259
0.171302
-0.626144
-0.554555
-0.055452
-0.432043
-0.262046
2.13777
2.23396
2.5265
3.24888
2.98235
2.8335
3.49525
2.04467
2.12942
1.7327
2.66911
3.11734
3.54223
-0.208097
0.0810823
0.121341
-0.19568
-2.39658
-1.35416
-0.745987
-0.717066
-0.486884
-0.603169
-0.62087
-0.760363
-0.842656
1.63035
1.82903
1.32172
1.07384
0.837365
0.638569
0.401985
0.141297
-0.753539
-0.684839
-0.120057
-0.550366
-0.357061
2.2532
2.42312
2.8093
3.5111
3.17327
3.92377
2.02953
2.44922
3.13034
3.71763
4.2368
-32.2647
-0.23963
0.284278
0.336314
-0.404786
-31.5189
-0.852384
-0.764652
-0.888701
-1.00571
-0.709444
-0.911924
-0.993319
1.75144
1.51229
1.19671
0.910358
0.689476
0.412455
0.106121
-0.923989
-0.853347
-0.198204
-0.699406
-0.474737
2.65419
2.34256
3.29014
3.97102
4.59889
2.52076
2.07565
-34.3521
-32.265
-0.148024
0.14917
0.19339
-29.4859
-31.3937
-31.7484
-0.989018
-1.03988
-1.17237
-1.1974
-0.824859
-1.11749
-1.19034
1.71656
1.41373
1.03316
0.779324
0.429993
0.0516864
-1.17476
-1.09381
-0.311292
-0.638348
-0.905752
3.09206
3.90917
4.73339
2.93844
2.5173
2.07913
-35.3384
-34.4216
-32.2659
-0.503974
-28.8949
-31.1343
-33.9285
-30.9595
-1.32352
-1.49492
-1.54116
-1.34399
-1.42982
-1.46541
1.64136
1.24326
0.941339
0.470102
-0.00751054
-1.56691
-1.43702
-0.448891
-0.842965
-1.17647
3.7583
4.71491
2.85152
3.50992
2.52586
2.06906
-36.1756
-35.4853
-34.4555
-32.2499
-35.0411
-27.4368
-28.6533
-30.8817
-34.0641
-30.7473
-1.76564
-1.98053
-2.32018
-1.92765
-1.76909
-1.93898
1.51363
1.01733
0.454216
-0.10272
-2.15624
-1.86624
-0.628121
-1.10116
-1.51596
4.54754
3.21387
4.20031
2.76771
2.20234
-36.1855
-35.6101
-34.4721
-32.2296
-33.868
-35.2817
-27.5703
-27.4384
-28.525
-30.6546
-33.9775
-30.7323
-2.30471
-2.89541
-2.43795
-2.56342
-2.69961
1.60742
1.00509
0.377243
-0.258342
-2.53264
-2.25109
-0.862423
-1.4086
-1.88444
3.72428
3.13596
2.45533
-38.8086
-36.0601
-35.6967
-34.482
-32.2066
-33.9367
-35.4449
-25.4522
-27.6083
-27.4078
-28.433
-30.4475
-33.8518
-30.6518
-3.21607
-3.36429
-3.41107
-3.36229
1.74579
1.00961
0.259527
-0.472587
-3.13201
-2.76568
-1.15582
-1.77286
-2.31495
-41.6611
-38.9166
-35.9432
-35.7584
-34.4936
-32.184
-34.0724
-35.6046
-25.0133
-25.4713
-27.6378
-27.3598
-28.3609
-30.2624
-33.7074
-30.4833
-46.3564
-41.8574
-38.9897
-35.8558
-35.8037
-34.5075
-32.1609
-34.1866
-35.777
-21.0323
-25.1933
-25.4866
-27.6409
-27.3332
-28.2893
-30.1435
-33.5589
-30.2812
-49.0539
-46.2014
-41.9698
-39.0504
-35.7971
-35.8392
-34.5239
-34.2729
-35.9664
-25.3543
-20.8345
-25.3256
-25.486
-27.6251
-27.3226
-28.2127
-33.4392
-94.1991
-48.6181
-46.1771
-42.05
-39.08
-35.7587
-35.862
-34.3231
-36.141
-20.0996
-26.1354
-20.8432
-25.3897
-25.4846
-27.6001
-27.3286
-33.3858
-30.5452
-103.5
-47.5061
-46.2372
-42.1108
-39.0856
-35.7391
-34.324
-21.6878
-20.2191
-26.9601
-20.8724
-25.414
-25.4852
-27.575
-27.3355
-44.5265
-30.9088
-112.461
-46.2845
-46.3207
-42.1428
-39.075
-34.2932
-20.946
-21.7546
-20.2885
-27.7463
-20.9073
-25.4158
-25.492
-27.5655
27.5344
-52.1176
-30.5395
-120.556
-45.0498
-46.3953
-42.1505
-39.0509
-20.8957
-20.9036
-21.8329
-20.3599
-28.4751
-20.952
-25.4094
-25.5
35.0715
30.6563
-60.6035
-29.9492
-127.694
-43.8004
-46.4015
-42.1342
-20.475
-20.84
-20.8635
-21.888
-20.4458
-29.1814
-20.9808
-25.4184
47.3708
36.2103
33.8073
-68.4846
-29.2348
-134.433
-42.6546
-46.3366
-20.4794
-20.4062
-20.7853
-20.8296
-21.9263
-20.5426
-29.8646
-20.9704
50.0498
48.2395
37.3985
36.181
-75.662
-28.378
-141.488
-41.8854
-20.9048
-20.408
-20.3331
-20.7321
-20.8041
-21.9544
-20.6372
-30.2905
49.9718
50.6052
49.1492
38.3964
38.2125
-82.6956
-27.6075
-146.792
-20.9508
-20.8467
-20.333
-20.2652
-20.682
-20.7849
-21.9762
-20.7059
47.585
50.5685
51.2209
49.8841
39.3478
40.1631
-90.4816
-27.5192
-21.6873
-20.9053
-20.7907
-20.2639
-20.2053
-20.6369
-20.7693
-21.9908
34.7826
48.3176
51.1636
51.7793
50.4773
40.322
42.1354
-97.0181
-20.0307
-21.7582
-20.8638
-20.736
-20.2029
-20.1535
-20.6018
-20.7578
27.2697
35.8922
49.1833
51.7055
52.2675
50.9723
41.2981
43.6018
-25.3211
-20.1155
-21.8373
-20.8291
-20.6841
-20.1502
-20.1151
-20.5847
-44.248
30.3241
37.0563
49.8953
52.1829
52.697
51.3572
41.8966
-20.9837
-26.157
-20.1784
-21.8939
-20.8032
-20.6369
-20.111
-20.0973
-30.3961
-51.9934
33.3985
38.0017
50.4726
52.6041
53.0533
51.5798
-24.8723
-20.7772
-26.9937
-20.2458
-21.9341
-20.7839
-20.5999
-20.0928
-94.0441
-30.9937
-60.5064
35.6632
38.8861
50.9446
52.9528
53.2546
-25.3461
-25.0535
-20.7789
-27.7793
-20.3263
-21.9648
-20.7682
-20.582
-48.9838
-103.72
-30.7088
-68.3309
37.5625
39.8287
51.3171
53.1499
-27.499
-25.3711
-25.1817
-20.8062
-28.5059
-20.4159
-21.989
-20.7567
-45.7036
-48.4494
-112.741
-30.1595
-75.4074
39.3415
40.7787
51.5294
-27.2305
-27.5249
-25.387
-25.2412
-20.8415
-29.2087
-20.5055
-22.0048
-41.5736
-45.5558
-47.2382
-120.848
-29.4814
-82.3697
41.0068
41.386
-30.5485
-34.2783
-27.238
-27.555
-25.3881
-25.2629
-20.8855
-29.8784
-20.5679
-38.2669
-41.7376
-45.5413
-45.9571
-128.001
-28.6569
-90.0274
42.2451
-28.187
-30.4814
-34.3091
-27.2069
-27.5611
-25.3883
-25.2598
-20.9128
-30.2914
-33.8464
-38.3885
-41.8281
-45.6024
-44.6637
-134.735
-27.8892
-96.5402
-34.6181
-30.9784
-27.8691
-30.5523
-34.2398
-27.1585
-27.5477
-25.3907
-25.2523
-20.9021
-33.7441
-38.4695
-41.8977
-45.6838
-43.3634
-141.797
-27.7833
-34.9759
-35.8008
-31.7621
-30.7787
-27.7511
-30.5079
-34.1583
-27.1318
-27.5247
-25.3976
-25.2594
-35.2408
-34.0741
-33.8623
-38.5345
-41.949
-45.7504
-42.1567
-147.123
-35.1536
-35.8482
-31.7158
-30.5066
-27.6506
-30.3765
-34.0499
-27.1252
-27.5015
-25.4066
-35.3258
-34.1496
-33.9887
-38.5679
-41.9799
-45.7472
-41.3811
-35.2999
-35.7409
-31.6815
-30.2657
-27.5758
-30.1887
-33.9326
-27.1294
-27.4919
-35.4436
-34.1574
-34.0845
-38.5793
-41.9886
-45.6718
-35.4562
-35.6247
-31.6531
-30.0523
-27.527
-29.9809
-33.8415
-27.1352
-35.5339
-34.1647
-34.1407
-38.5699
-41.9726
-35.6292
-35.536
-31.6253
-29.8547
-27.4763
-33.8067
-35.5983
-34.1716
-34.1477
-38.547
-35.7907
-35.4778
-31.5962
-29.6842
-27.4105
-35.6455
-34.1825
-34.1186
-35.4412
-31.5625
-29.5733
-35.6824
-34.1981
-35.4227
-31.5392
-35.7072
-34.2147
-3.24589
-3.63075
-3.68278
-4.19677
-4.1746
-4.74418
-3.17537
-3.64226
-2.71869
-3.96211
-4.02907
-4.58253
-4.67168
-5.33573
-5.33728
-6.00508
-8.06808
-8.83659
-8.89841
-9.81512
-9.63715
-5.98528
-6.663
-4.71279
-5.33214
-3.56045
-4.09324
-2.6061
-3.01758
-2.13462
-10.5689
-10.2025
-4.15344
-4.3403
-4.93675
-5.04416
-5.65691
-5.8729
-6.63747
-6.66352
-7.42926
-7.37083
-8.0826
-8.83282
-9.61849
-9.60845
-10.4497
-10.6307
-11.6345
-11.5288
-6.60726
-7.32353
-7.29116
-8.08202
-8.01421
-8.80413
-9.29226
-5.21738
-5.84892
-3.91409
-4.47651
-2.83582
-3.26718
-1.94169
-2.27293
-1.46084
-8.67403
-9.07605
-12.4997
-13.4219
-10.1385
-10.9282
-11.8955
-4.23762
-4.47181
-5.09509
-5.33614
-6.03497
-6.14473
-6.88771
-7.1856
-8.01455
-8.09766
-8.89399
-9.66634
-10.5086
-10.4649
-11.3051
-11.26
-12.2287
-12.3962
-13.0997
-13.4252
-14.5251
-14.0351
-14.9091
-5.69057
-6.47567
-6.58342
-7.26247
-7.45616
-4.27027
-4.89186
-3.01255
-3.50785
-2.01574
-2.36248
-0.702996
-1.1849
-1.44938
-7.12542
-7.89897
-7.64739
-8.80005
-10.168
-14.4858
-12.5421
-13.9355
-11.4015
-12.5703
-4.15012
-4.49876
-5.16375
-5.45796
-6.1822
-6.4815
-7.21245
-7.41556
-8.22842
-8.50196
-9.18472
-9.66832
-11.2126
-10.8345
-12.238
-12.2533
-13.3221
-13.2481
-13.8861
-14.6734
-15.1384
-15.1985
-16.1152
-15.8288
-15.6714
-16.2353
-16.3608
-17.5618
-4.90709
-5.73066
-5.33332
-6.04829
0.142197
-0.340164
-3.35214
-4.08546
-2.02914
-2.50955
-0.516212
-1.08599
-1.35681
1.03103
0.585334
-5.67169
-6.46384
-6.31792
-18.7048
-17.6333
-19.3421
-7.67301
-8.9826
-10.2801
-11.4593
-13.7469
-14.8803
-16.5573
-15.8937
-12.7156
-13.8039
-3.91404
-4.3389
-5.05822
-5.4596
-6.21867
-6.55708
-7.31833
-7.64119
-8.73921
-8.41112
-9.62099
-9.81812
-10.7202
-11.2803
-12.8969
-12.3754
-13.8427
-13.961
-14.6458
-15.2243
-15.0922
-20.674
-21.084
-19.8245
-16.1999
-15.9704
-16.9607
-16.9214
-17.2806
-18.0893
-17.6741
-19.8152
-19.0679
-29.4934
-30.2223
-29.8766
-32.5017
-31.3186
-30.8583
-31.0881
-30.7757
-3.6791
-4.26422
-3.72094
-4.40799
0.510481
-0.0600744
-2.11788
-2.69311
-0.254054
-0.941777
-1.26795
1.92352
1.54964
1.57421
1.06376
-3.95023
-4.83738
-7.67652
-4.49665
-6.02217
-29.1902
-27.6122
-23.557
-22.7979
-21.4133
-17.0134
-18.412
-19.1837
-20.6404
-7.89699
-8.99911
-8.85259
-10.3855
-11.7215
-13.0265
-14.3319
-15.1541
-16.5302
-29.9028
-30.8708
-32.4359
-30.7904
-32.2263
-33.8917
-32.7428
-31.8981
-33.1644
-32.9858
-3.3901
-4.00845
-4.81936
-5.31782
-6.14168
-6.56992
-7.48427
-7.77385
-8.57459
-8.85302
-10.2451
-9.77532
-11.0992
-11.2575
-12.2718
-12.8459
-12.8837
-14.2251
-13.8144
-14.9883
-15.6973
-15.646
-16.6714
-16.7532
-16.3875
-22.0331
-22.9563
-25.0853
-24.2157
-21.6893
-20.7717
-17.6978
-17.779
-18.3884
-18.6539
-20.6362
-19.4414
-19.1159
-25.6767
-27.6706
-27.2289
-27.7822
-27.1629
-29.2518
-29.5024
-30.081
-32.1819
-31.2032
-31.6292
-31.3437
-31.751
-31.8619
-32.3999
-32.0801
-31.6309
-31.7503
-2.04827
-2.55809
-1.84372
-2.54375
1.00963
0.317089
0.146454
-0.662705
-0.968608
2.76478
2.45261
2.58173
2.15461
2.24387
1.69473
-1.70573
-2.33233
-3.65046
-3.98214
-5.51616
-6.41306
-2.94638
-24.8106
-27.2642
-26.1764
-30.0214
-28.6885
-24.0927
-25.286
-23.465
-21.4946
-6.47702
-21.2385
-17.4419
-19.8222
-18.7787
-7.55938
-8.53757
-10.0852
-10.5761
-12.1437
-12.5931
-14.3824
-15.3739
-17.1312
-30.1227
-31.0012
-29.9899
-32.9844
-32.7027
-34.2815
-32.4619
-32.3238
-31.5174
-32.0575
-33.2862
-32.981
-2.72711
-3.37153
-2.13882
-2.19669
-4.32949
-5.03806
-6.00758
-6.4879
-7.49897
-8.03247
-9.11827
-9.23685
-10.5307
-11.3783
-10.2574
-12.0175
-12.6195
-13.5727
-14.0945
-14.9096
-13.562
-14.1007
-15.5955
-15.6353
-15.6599
-16.4759
-16.3507
-16.451
-16.4369
-17.1853
-17.2965
-18.0033
-18.3696
-22.6256
-23.6165
-24.6988
-24.0705
-22.2987
-21.6063
-19.3371
-19.6442
-21.4342
-20.4566
-20.3663
-25.517
-25.1599
-25.5712
-28.3523
-27.2057
-29.0679
-28.8398
-30.5397
-27.6281
-30.0969
-30.3886
-31.828
-31.4264
-31.073
-32.326
-30.4024
-31.4989
-0.446966
-0.25019
-0.654612
0.0266136
1.68478
0.926432
0.734938
0.287602
3.58244
3.34701
3.60375
3.24963
3.45459
2.96511
3.0763
2.41723
4.3078
4.16587
4.89191
4.91473
5.47964
5.33383
1.08561
-0.514609
-1.29947
-1.34171
-5.19534
-3.45035
-1.57558
-0.795327
-28.7033
-28.2712
-26.6535
-22.493
-25.7652
-24.2934
-4.90994
-6.66202
-8.43703
-22.7884
-18.6246
-21.2125
-19.983
-10.1921
-11.2516
-12.7705
-13.2748
-14.8992
-15.4481
-17.456
-29.0439
-32.7865
-33.4222
-32.2911
-31.3097
-34.3232
-35.3254
-34.4926
-35.3087
-33.1498
-33.128
-33.7083
-34.4414
-34.0559
-1.31332
-1.82497
-4.31689
-4.37159
-3.13009
-3.7305
-5.69134
-6.24895
-8.05069
-8.09692
-9.19461
-9.67033
-11.2753
-11.2279
-12.1143
-12.7024
-13.669
-13.9917
-14.9165
-14.7594
-15.5105
-16.1129
-17.0366
-16.691
-17.3189
-16.9805
-17.6932
-17.7275
-17.9606
-17.8898
-18.68
-19.0217
-19.6714
-20.0499
-24.2192
-22.9582
-23.8439
-23.2658
-22.2576
-20.6511
-21.6446
-21.0746
-21.4849
-26.3886
-24.9484
-27.4622
-25.9353
-27.9535
-28.1801
-27.4722
-31.0978
-28.9262
-32.9833
-31.101
5.5386
5.80874
0.937499
1.14202
2.43951
1.68925
1.82154
2.12569
2.42186
4.50846
4.2114
4.5157
4.12582
4.39819
3.88196
4.12919
3.45825
5.35361
5.21134
6.02201
6.03297
6.63203
6.44329
2.96236
2.5349
2.46637
0.681798
-3.10255
-1.53239
0.14444
1.39329
-24.7851
-26.8097
-28.009
-3.1811
-5.21549
-7.08273
-9.13853
-11.0024
-22.6426
-24.4848
-18.9065
-21.7457
-13.0305
-14.2433
-16.4309
-16.8462
-19.09
-28.8951
-31.1343
-30.6944
-33.8538
-31.3618
-32.9547
-34.7692
-34.7689
-35.4694
-33.5292
-34.5967
-34.8237
-35.2307
-34.0464
-1.11868
-3.10762
-2.28269
-1.92882
-2.37119
-4.07368
-4.97322
-5.35527
-4.0763
-5.21507
-7.9159
-8.15876
-9.57582
-9.05051
-11.9394
-12.1848
-14.3293
-13.2977
-13.2779
-14.0696
-14.2859
-15.3112
-15.6206
-16.3273
-16.7444
-17.7602
-18.3192
-18.2203
-17.9997
-18.5864
-18.7006
-18.2655
-19.5404
-19.4506
-19.4756
-19.9387
-21.3649
-24.7537
-24.3198
-23.3045
-22.1141
-21.5301
-22.952
-22.6221
-22.0839
-25.5906
-25.459
-27.4209
-26.5521
-27.7076
-27.8246
-27.9488
-27.6448
5.54594
5.92711
6.58892
6.93017
3.64164
3.01876
3.33152
4.38175
4.28329
5.67189
5.39443
5.84891
5.26862
5.54033
4.88503
4.99265
6.48968
6.59668
7.34002
7.29567
8.01681
7.68689
6.15544
4.91558
4.23663
3.41033
4.65432
7.65326
-1.3843
0.278852
2.41966
4.09705
-1.23012
-28.6329
-26.4844
-2.97498
-5.2683
-7.45727
-9.78703
-12.8663
-14.9739
-14.4774
-21.376
-26.0304
-23.6715
-17.8402
-18.4125
-21.0287
-32.076
-30.0405
-35.1522
-33.6908
-35.7708
-35.8091
-36.2895
-35.4077
-35.5228
-34.193
-2.96187
-2.40496
-2.71748
-3.80307
-3.92574
-3.3022
-4.04311
-5.79629
-6.84293
-8.02885
-6.40464
-8.10694
-8.09572
-8.95639
-12.9796
-12.2198
-13.7295
-13.8965
-16.7879
-15.0264
-14.9023
-14.1798
-16.1609
-17.611
-17.141
-18.3706
-18.5556
-18.3426
-19.1782
-18.3719
-19.5182
-20.0208
-20.0726
-18.8874
-20.6723
-20.0734
-20.5786
-21.7557
-22.7892
-25.8161
-25.0826
-21.8761
-21.9965
-22.9009
-22.4479
-26.0444
-25.8584
-27.1044
-26.2772
-27.602
-27.0242
-3.52451
-3.58792
5.33691
5.84528
6.47928
6.94257
7.66371
8.2151
5.93674
5.79176
6.7357
7.8135
8.42318
7.10383
6.82602
7.31722
6.60159
6.9822
8.08865
8.08852
8.91685
8.82797
9.6702
9.11294
9.63746
7.68154
6.26794
6.63215
10.3777
9.55666
1.01542
2.95385
5.67363
7.28253
1.34189
-0.673968
-2.8115
-32.5139
-28.7714
-5.77812
-8.82387
-12.189
-14.4488
-18.3938
-19.8283
-23.5837
-27.3933
-30.452
-25.1541
-37.7243
-35.2125
-38.5725
-38.8507
-39.2723
-38.1081
-39.1568
-38.3111
-4.27585
-4.00982
-5.1574
-5.22619
-6.07544
-5.42176
-6.2876
-7.71796
-8.60595
-9.71062
-8.44396
-9.70376
-13.7158
-11.0148
-12.1967
-13.1328
-14.1216
-14.0966
-15.2848
-17.5689
-16.0669
-17.4424
-15.9045
-18.7198
-18.0556
-20.3243
-18.7624
-19.6465
-18.9584
-19.1356
-19.0222
-20.0185
-20.416
-20.3669
-20.531
-20.1746
-21.3432
-21.1702
-21.8744
-22.1662
-23.4165
-22.3351
-24.4361
-23.5144
-23.6682
-25.2539
-24.9843
-25.6188
-25.0961
-3.96961
-4.1432
-4.96276
-4.97734
4.89101
5.49135
6.07463
6.64263
7.29586
7.96287
9.50862
8.81019
4.2666
4.88393
10.5926
10.2088
8.37189
8.90379
8.8981
8.56637
9.14995
10.082
9.89417
10.881
10.6276
11.2734
10.4375
12.0966
12.5921
13.4431
12.5794
9.351
10.3837
6.28128
4.2768
10.6657
9.09452
5.24977
2.71939
-1.24515
3.60338
-4.17379
-6.89634
-37.6648
-33.9457
-11.2146
-15.7191
-22.5876
-24.4365
-33.607
-38.5543
-32.865
-40.0556
-40.1601
-41.7191
-41.1776
-42.4643
-41.16
-5.8295
-6.27281
-6.93979
-7.10006
-8.1457
-7.57004
-9.01225
-9.8616
-10.8745
-11.917
-10.8858
-11.9217
-14.8413
-13.8833
-13.186
-14.1677
-17.7725
-14.9721
-15.3148
-16.9481
-16.4471
-18.2113
-17.5176
-17.8127
-17.8391
-19.3173
-18.8142
-19.9262
-20.117
-19.7135
-19.7868
-19.5007
-19.4638
-20.4534
-20.6237
-20.6928
-21.0349
-20.4621
-20.7018
-20.3003
-21.8396
-21.3495
-23.6239
-22.4726
-24.8208
-23.563
-21.8941
-25.1023
-24.6013
-4.25642
-4.4874
-5.19002
-5.41168
-6.17917
-6.38937
5.38566
6.07008
6.62472
7.36388
10.8193
9.01119
9.97638
8.13388
3.53246
4.12768
4.52501
5.22388
2.72014
3.31086
1.86009
2.43019
12.5972
11.2472
10.8665
11.8516
11.1174
11.9153
12.3877
12.0625
13.2516
12.4735
12.7799
12.0872
11.9025
14.0742
15.0235
15.2649
16.546
15.9714
13.7449
13.0906
10.0424
8.12243
14.4238
13.0936
8.91744
6.5235
-0.33849
-5.23702
6.46835
2.59512
-8.62167
-14.0397
-45.4931
-42.8895
-23.2678
-31.7551
-40.8873
-46.3095
-39.8154
-46.5121
-44.47
-46.5781
-46.2462
-7.34974
-8.14225
-10.2955
-10.3689
-9.39427
-9.40571
-11.1453
-12.1633
-13.079
-13.9292
-13.4556
-14.1667
-16.0182
-15.0058
-14.7024
-15.2934
-18.0291
-17.8743
-16.9312
-18.3758
-16.929
-17.42
-18.6676
-18.9724
-18.2248
-19.4561
-19.4388
-20.6805
-20.2696
-20.2719
-20.1973
-20.1402
-20.7639
-20.7288
-20.5583
-20.7428
-20.6373
-20.4165
-21.2073
-20.5917
-21.2827
-23.6549
-21.474
-21.8078
-25.1753
-21.7164
-7.75903
-4.21375
-4.50953
-5.23144
-5.57642
-6.32602
-6.63544
-7.32623
-4.18824
-4.47521
-3.99063
-4.35268
-3.66246
-4.06628
0.999195
1.49231
0.142344
0.564646
-0.693516
-0.319944
-1.44516
-1.16716
-3.25856
-3.70178
-2.72522
-3.19145
-2.12811
-1.92238
-2.60436
5.69234
6.54648
7.17842
8.15369
10.0918
11.0196
8.97834
3.60313
4.29661
4.67352
5.43414
2.59117
3.24988
1.52334
2.12792
10.8861
13.5848
14.9984
13.7235
14.2235
13.8431
15.3961
14.7669
15.8243
14.9625
13.1421
13.3446
11.869
16.4372
16.8014
17.1483
18.4923
18.3644
20.0894
20.09
17.7336
17.2832
14.4038
12.3405
18.9292
17.5934
12.6526
9.80442
-10.5539
-1.3383
-8.99234
8.38569
2.89219
-20.5197
-24.8579
-47.9697
-50.3376
-35.6487
-66.0237
-55.9171
-54.3651
-47.0298
-8.80448
-9.5729
-11.7069
-11.8948
-12.0002
-10.7176
-11.4613
-13.5251
-13.9986
-15.1059
-15.3915
-15.0089
-15.9804
-15.678
-16.3764
-17.1861
-16.2461
-19.4228
-18.874
-17.7269
-18.0844
-18.8927
-18.5419
-19.5074
-19.4554
-20.3976
-20.4059
-20.5741
-20.4708
-20.9517
-20.9361
-20.8541
-21.1641
-20.8934
-20.9763
-20.9467
-20.6488
-21.0694
-20.6537
-20.4976
-24.7958
-20.7209
-9.10706
-7.58391
-8.39287
-5.12764
-5.53714
-6.25111
-6.64336
-7.31364
-4.90181
-5.29938
-4.61784
-5.06317
-4.20664
-4.6812
0.490227
1.00587
-0.481636
-0.0617529
-1.43842
-1.06221
-2.23583
-2.0142
-3.65906
-4.17184
-3.00603
-2.78901
-3.55085
5.86947
6.89499
7.45318
8.72937
9.54693
3.47652
4.25562
4.52079
5.42515
2.19431
2.9144
0.880308
1.54907
8.93769
11.2183
9.77523
17.2388
16.9908
16.443
18.2498
17.4588
18.0425
15.9734
14.3295
14.0973
12.2724
20.2416
18.9361
19.0987
21.9499
21.8838
23.9663
24.0698
22.1816
22.3316
19.1418
17.1106
24.1615
22.6571
17.4521
13.871
-13.2006
-21.7786
-2.2495
-12.1024
11.1015
3.37666
-28.9578
-30.7688
-40.5899
-88.096
-80.3688
-10.0492
-10.6885
-11.6253
-12.7157
-13.4405
-13.2071
-13.2446
-12.6657
-16.0332
-16.618
-17.2016
-17.2174
-16.4482
-17.7421
-17.0523
-17.8941
-18.2164
-18.5564
-18.2505
-18.0681
-19.7488
-19.417
-18.8844
-19.0888
-19.7537
-19.4581
-20.1562
-20.434
-20.6424
-20.6633
-21.1703
-21.0041
-21.0396
-21.1585
-21.3942
-21.352
-21.4025
-21.3282
-20.0127
-21.5894
-20.8314
-30.2169
-9.04445
-9.89519
-7.73245
-8.62647
-5.97448
-6.4437
-7.29529
-5.77216
-6.28685
-5.31323
-5.89453
-4.68174
-5.26809
-0.256836
0.223664
-1.33292
-0.913928
-2.38877
-2.01813
-3.21916
-3.03603
-4.02486
-3.85168
-4.61141
5.77093
7.01198
7.64151
7.18974
3.00303
3.87761
4.05544
5.09826
1.4954
2.27887
0.00993123
0.794502
9.28723
7.84053
11.6018
10.08
17.4608
17.4245
21.0668
20.3187
19.6557
18.73
21.3935
21.0737
12.4159
16.8181
15.2395
14.1312
23.3775
23.2562
25.8112
25.5316
27.0574
27.9212
26.5292
28.0152
24.0455
22.3473
28.7699
27.5443
23.6859
19.7727
21.5731
-18.8561
-28.6672
14.0526
-6.01314
-17.6857
-32.4296
-28.5672
-13.8436
-10.2152
-11.0371
-11.7307
-12.7173
-13.5965
-15.8987
-14.4704
-15.3553
-17.6881
-17.2393
-18.7453
-18.8111
-17.2564
-18.5719
-19.0893
-19.2026
-19.3564
-18.9372
-19.2441
-19.4968
-19.3939
-19.351
-20.2227
-20.0235
-19.7604
-19.8391
-20.1589
-21.0469
-20.5757
-20.7631
-21.0931
-21.1078
-21.2588
-21.2514
-21.0584
-21.1736
-21.8582
-21.1549
-9.09773
-9.81618
-7.19856
-7.74005
-8.63813
-6.59875
-7.23826
-5.9143
-6.57178
-5.18185
-5.85404
-1.2034
-0.725044
-2.43307
-1.9862
-3.5426
-3.2391
-4.36921
-4.22754
-5.05653
7.10482
5.32773
6.21104
5.82706
2.31199
3.19709
4.16774
3.38223
0.712649
1.52912
-0.998558
-0.213776
9.06763
7.08371
5.74601
11.3909
9.63984
17.9159
20.6901
19.5938
20.4598
24.9506
23.5945
24.7893
22.6732
22.9489
14.9554
12.4512
17.6635
16.3103
19.2569
27.6157
27.1457
30.8653
33.3159
30.4056
31.1769
31.7835
32.479
33.4591
28.7874
29.7448
29.9146
25.5525
27.1663
25.8577
21.442
-21.5793
-39.7419
-36.1986
-15.8404
-10.2797
-14.3899
-14.8855
-11.305
-11.5931
-12.4439
-12.9814
-13.6723
-14.313
-16.1822
-15.9586
-17.5461
-17.2528
-19.756
-19.7994
-18.7248
-18.9645
-20.1945
-20.0085
-19.3652
-19.3412
-20.0046
-20.0904
-20.1313
-20.6619
-20.5213
-20.3407
-20.559
-20.9247
-20.8012
-21.1012
-21.0362
-21.0023
-20.9779
-21.0238
-21.0601
-10.2807
-8.0085
-8.60065
-9.36109
-9.66475
-7.30623