/*--------------------------------*- C++ -*----------------------------------*\
  =========                 |
  \\      /  F ield         | OpenFOAM: The Open Source CFD Toolbox
   \\    /   O peration     | Website:  https://openfoam.org
    \\  /    A nd           | Version:  8
     \\/     M anipulation  |
\*---------------------------------------------------------------------------*/
FoamFile
{
    version     2.0;
    format      ascii;
    class       volScalarField;
    location    "4000";
    object      epsilon;
}
// * * * * * * * * * * * * * * * * * * * * * * * * * * * * * * * * * * * * * //

dimensions      [0 2 -3 0 0 0 0];

internalField   nonuniform List<scalar> 
4109
(
0.117504
0.131182
0.120809
0.129879
0.135524
0.131486
0.13676
0.120696
0.145275
0.145106
0.14318
0.147277
0.120098
0.134656
0.139654
0.150936
0.151596
0.149996
0.152001
0.141144
0.121866
0.130646
0.13148
0.158825
0.160152
0.165331
0.120009
0.13381
0.118582
0.16047
0.149186
0.143184
0.132437
0.13128
0.137933
0.163078
0.164098
0.176547
0.137237
0.119689
0.134472
0.137082
0.12239
0.166565
0.154523
0.552531
0.250008
0.148859
0.143826
0.132372
0.138991
0.170778
0.178449
0.192218
0.150508
0.137665
0.117473
0.135025
0.139346
0.147595
0.143941
0.676874
0.177315
0.163066
0.157185
0.2127
0.553019
0.151025
0.143476
0.143701
0.207829
0.184805
0.236317
0.22742
0.224585
0.155899
0.155604
0.143837
0.134909
0.144254
0.140646
0.143546
0.149308
0.152115
0.182907
0.248573
0.590478
0.800368
0.810675
0.188968
0.184678
0.169517
0.163121
0.157878
0.193881
0.422508
0.151296
0.143933
0.237085
0.220717
0.209838
0.242332
0.248356
0.245916
0.251896
0.165705
0.161313
0.155621
0.141091
0.154492
0.208251
0.147195
0.151785
0.15473
0.161319
0.818639
0.303722
0.400281
0.567061
0.895711
0.84688
0.252125
0.206331
0.194385
0.178849
0.172037
0.165669
0.157406
0.429744
0.162586
0.154745
0.241512
0.227104
0.260361
0.251883
0.27434
0.256568
0.172104
0.169792
0.169303
0.155153
0.161005
0.211036
0.152191
0.15755
0.162786
0.166814
0.798305
0.474659
0.916072
0.599392
0.925936
0.28517
0.214462
0.20367
0.186773
0.179151
0.17249
0.166066
0.159857
0.415406
0.154469
0.235695
0.221824
0.269644
0.248224
0.279166
0.283649
0.300085
0.182712
0.178225
0.177049
0.163902
0.169625
0.226719
0.15922
0.165602
0.168918
0.176766
0.556326
0.972667
0.580169
1.0095
0.984459
0.313907
0.197387
0.207055
0.188714
0.172229
0.180802
0.170738
0.473942
0.163198
0.219138
0.230588
0.263616
0.24429
0.278158
0.297222
0.296313
0.338056
0.190365
0.18816
0.18947
0.177761
0.171347
0.228547
0.165791
0.171663
0.177975
0.18381
0.602858
1.05472
1.07885
0.666631
1.09693
0.310143
0.198463
0.210152
0.184839
0.178471
0.496478
0.169887
0.221467
0.234392
0.257909
0.24768
0.273648
0.29623
0.311801
0.335234
0.375038
0.202439
0.196968
0.196618
0.189095
0.178952
0.241296
0.179823
0.172462
0.211963
0.185976
0.194915
0.590987
1.15078
0.698031
1.19341
1.19338
0.329667
0.200876
0.208848
0.190314
0.547524
0.171657
0.224067
0.234165
0.26209
0.250337
0.277485
0.289834
0.315064
0.338442
0.362229
0.422392
0.213115
0.205306
0.202638
0.222022
0.181143
0.245396
0.184168
0.225181
0.203814
0.196864
1.24226
0.61541
1.29083
0.766549
1.32895
0.338371
3.64985
0.202997
0.21522
0.577132
0.179055
0.223643
0.237527
0.26306
0.249462
0.279754
0.293522
0.308307
0.33749
0.364643
0.402126
0.412958
0.47906
0.21009
0.219832
0.203517
0.234343
0.236737
0.186844
0.255222
0.199698
0.216297
0.207085
0.639433
1.36613
1.4155
0.770339
1.44509
0.353902
4.40738
3.87582
4.60697
3.18424
3.9592
2.78974
0.751976
0.187953
0.232169
0.238452
0.254129
0.252443
0.267529
0.280579
0.29401
0.311392
0.42399
0.327688
0.361238
0.397176
0.478459
0.541667
0.510046
0.617859
0.231728
0.225023
0.247543
0.251646
0.227121
0.19941
0.271804
0.207346
0.219421
0.698987
1.52094
1.50337
0.357041
9.80429
7.17486
4.72242
3.39321
4.36372
5.47821
0.724371
0.718617
0.810411
3.02079
2.61985
2.79068
2.54537
2.91514
1.38694
0.218516
0.306339
0.287399
0.273888
0.464694
0.284918
0.29562
0.311873
0.330418
0.42252
0.349641
0.387942
0.533201
0.479672
0.589861
0.576224
0.721148
0.806613
0.248663
0.251309
0.265024
0.26486
0.241316
0.231316
0.209935
0.269364
0.223009
0.789887
1.81184
10.1273
7.33936
3.60962
4.35717
5.52844
0.787731
0.840137
0.920336
0.843768
0.898342
2.13266
2.32175
2.24651
2.52334
2.99091
2.06871
1.18157
0.318386
0.328623
0.29229
0.454859
0.47188
0.310683
0.308336
0.329142
0.351503
0.414618
0.373177
0.542322
0.509188
0.595643
0.647278
0.729696
0.766512
0.276543
0.265319
0.232793
0.293498
0.281781
0.254491
0.245423
0.319437
0.236784
0.224544
0.330625
0.867918
9.84249
11.2001
7.49129
3.58597
4.45296
5.70717
0.830641
1.00247
1.18956
0.939052
1.02763
1.82949
1.47208
0.933203
1.00112
1.9927
2.18588
2.5446
2.95255
2.48332
2.13097
0.605496
0.345348
0.325214
0.44396
0.473825
0.325193
0.328341
0.349737
0.374207
0.400022
0.553597
0.513289
0.605108
0.660802
0.698565
0.758244
0.302253
0.319378
0.295074
0.248683
0.249057
0.27097
0.286961
0.259836
0.334763
0.307203
1.72622
2.49482
0.241295
0.235145
10.2517
7.29755
7.04484
11.4057
7.76151
3.63366
4.54875
5.91913
0.912761
0.805851
1.07055
1.20277
1.13502
1.4044
1.66362
1.0369
1.12286
1.90799
2.14635
2.52699
3.06518
3.27117
3.08736
3.87834
0.641787
0.409771
0.348313
0.429296
0.462463
0.350669
0.34667
0.370389
0.400717
0.498965
0.540404
0.586575
0.639251
0.693383
0.739234
0.773232
0.33738
0.335561
0.262451
0.261986
0.276741
0.293221
0.312759
0.358075
0.32708
0.26437
0.361047
0.458517
10.664
7.53974
6.47381
4.31497
4.3917
11.5843
7.60072
3.7155
4.14697
4.95762
1.00671
0.876719
0.838714
1.61549
1.25986
1.35025
1.15896
1.24828
1.86929
2.11717
2.63669
3.13222
0.944943
3.87791
3.92183
4.47791
0.854864
0.45542
0.386791
0.429776
0.462374
0.371141
0.373309
0.398423
0.498412
0.539005
0.584337
0.635693
0.680297
0.713926
0.770654
0.782891
0.376176
0.37787
0.283054
0.282784
0.298944
0.315768
0.331774
0.385257
0.349436
0.332951
0.28358
0.302672
10.4477
3.29171
6.16611
5.39711
4.35535
11.7404
7.70914
3.51002
4.33029
5.22201
6.51452
1.11569
0.862337
0.976293
0.867314
1.29764
1.56127
1.41971
1.87386
2.27455
2.71537
2.99761
0.994545
4.63681
4.81241
5.59061
0.965426
0.5329
0.421969
0.46009
0.426059
0.396673
0.401669
0.494671
0.535265
0.627015
0.578133
0.66774
0.709718
0.711793
0.759966
0.823954
0.421507
0.407905
0.417834
0.304296
0.303464
0.330321
0.349413
0.372167
0.364646
0.306067
0.34933
10.9353
7.30173
2.47821
2.7169
4.9653
4.35675
3.59392
8.10778
11.6782
3.65402
4.28726
5.04612
6.20935
1.23862
0.892838
1.06792
0.919245
0.979825
1.46353
1.57339
1.37164
1.94505
2.32959
2.63831
3.13335
1.47419
5.55506
5.89798
6.51553
1.20993
0.611281
0.44486
0.463035
0.42899
0.429549
0.502869
0.534686
0.617387
0.580809
0.68116
0.711791
0.749129
0.798986
0.857107
0.474619
0.456775
0.45167
0.400129
0.330298
0.332456
0.351184
0.365318
0.38138
0.330771
0.412182
11.7556
8.623
6.4432
5.50839
1.92308
2.16862
2.59469
4.1624
3.56008
3.08902
1.56117
8.09184
11.4655
11.6747
3.6375
4.28798
5.73851
5.04662
1.19567
0.943881
1.04419
0.973716
1.51542
1.70893
1.33248
3.13816
2.00076
2.24162
2.7031
1.598
6.75864
7.27247
8.13459
0.473555
1.45149
0.632406
0.4666
0.466555
0.554019
0.531743
0.636343
0.643754
0.598497
0.691277
0.752922
0.811263
0.537123
0.500036
0.485586
0.428655
0.414895
0.351332
0.347283
0.371955
0.394284
0.355368
0.440449
0.617021
0.702066
8.36457
6.67936
5.12869
4.42389
1.77569
2.19127
2.62916
3.42764
2.94203
1.4646
1.24731
1.07337
0.860721
0.799973
10.8309
7.80641
10.8555
8.13343
3.16462
3.67723
4.21667
5.60405
1.17294
0.996242
1.0563
1.72703
1.52246
1.33607
1.26962
2.69359
2.68788
1.97713
2.33248
1.95481
9.22396
8.37743
9.37315
0.666753
1.56178
0.501303
0.557478
0.639103
0.583286
0.686661
0.732791
0.786203
0.541475
0.520549
0.462879
0.440202
0.418149
0.380345
0.375293
0.39912
0.513313
0.384171
0.741298
0.619381
0.680215
6.409
5.41963
4.19619
3.58392
1.79217
2.24733
2.47653
2.82513
1.57428
1.23732
1.30377
0.760503
1.04561
0.825783
0.900504
8.01285
6.67113
6.2525
5.15083
3.0025
3.52707
4.60312
2.63039
1.13366
1.0573
1.64541
1.40684
1.532
1.36024
1.22197
2.36244
2.40651
2.00183
1.80439
11.3036
10.5295
11.3661
1.07331
1.75272
0.552548
0.322348
0.635521
0.700525
0.759611
0.561334
0.49899
0.479269
0.452833
0.426529
0.403015
0.39636
0.462826
0.401893
0.691125
0.616146
5.04642
5.20355
4.42532
3.43665
2.91191
1.92208
2.12035
2.36741
1.64355
1.45871
1.28052
0.768993
0.819099
1.128
0.891278
0.984568
5.79421
5.17641
5.13595
4.29851
2.32756
3.11933
3.40962
2.69069
4.32648
1.1215
1.72947
1.56773
1.47289
1.30098
1.19121
1.80687
1.99252
2.03127
1.85012
15.1829
13.6404
15.6498
3.07114
0.617989
0.902157
0.681369
0.743258
0.54147
0.513411
0.483969
0.459919
0.433654
0.429523
0.471795
0.437804
0.676729
0.587682
4.25038
4.32604
3.54113
2.79965
2.41798
1.82953
2.01411
1.58802
1.39072
1.23524
0.73914
0.801274
1.10345
0.887542
0.980629
4.27265
4.13339
3.34532
1.89332
2.0972
2.38375
2.6044
3.55148
1.50034
1.37258
1.25155
1.64509
1.58003
1.79791
2.64515
20.8804
27.3969
9.45493
0.677831
1.11638
0.739186
0.560257
0.525762
0.4952
0.462848
0.458289
0.506387
0.641492
0.605448
3.51507
3.45936
2.81686
2.32353
2.0518
1.73467
1.51063
1.32712
1.17599
0.701314
0.770843
1.04884
0.849662
0.941949
3.40615
3.40175
2.78919
1.95536
2.1278
2.30828
1.81823
2.82759
1.41158
1.30882
1.50971
1.54038
1.67697
4.70957
46.166
45.4966
21.337
0.754583
2.34221
0.566036
0.536535
0.494041
0.502083
0.618649
0.66322
0.617523
2.83005
2.81309
2.33797
1.98757
1.76637
1.53934
1.35298
1.20186
0.722681
0.795328
1.07356
0.873576
0.967578
2.78428
2.77102
2.32925
1.85494
1.98324
1.68678
2.347
1.35724
1.43021
1.45601
1.52722
1314.38
10.0967
77.9441
81.0382
51.3488
1482.26
0.57955
0.541244
0.556468
0.553664
0.849061
0.669739
0.63024
2.30199
2.32658
1.99986
1.72339
1.50583
1.33252
1.18733
0.734069
0.800822
1.07025
0.880699
0.966507
2.21336
2.23581
1.98269
1.68309
1.53066
1.95586
2.00959
1105.26
1207.49
23.4058
139.919
140.004
1582.09
1368.9
1951.66
0.594757
0.541554
0.613935
0.610651
1.41911
0.685711
0.625129
2.01128
2.00478
1.7267
1.50891
1.33495
1.1959
0.749651
0.819722
1.08029
0.982876
0.896165
1.97308
1.75619
1.5274
1.74006
1.81119
1.77997
764.701
975.845
1147.86
53.4536
1533.03
1304.35
1833.47
1961.91
0.621453
0.617006
0.683112
3.05595
0.69939
0.634823
1.67086
1.68281
1.48697
1.32162
1.19071
0.750479
0.832169
1.08565
0.991898
0.909469
1.76057
1.57274
1.62301
1.65276
1.63803
1.61587
713.312
611.655
896.8
1138.64
1896.88
1679.08
1524.34
1292.57
1911.23
1981.21
0.660357
0.681181
0.756345
0.681862
0.700276
0.74003
1.54804
1.37307
1.2523
1.13419
0.81067
0.822033
1.06372
0.964322
0.918442
1.57055
1.5248
1.52905
1.50798
1.48162
557.672
507.455
864.02
1195.13
2190.78
1963.98
1473.46
1725.34
1572.59
1349.33
2039.17
2022.72
0.695942
0.723812
0.739427
0.761953
0.82264
1.45043
1.33285
1.23495
1.13748
0.85311
0.878208
1.06159
0.990503
0.932852
1.42033
1.38875
1.34338
2452.44
445.178
440.988
884.204
1369.69
2212.78
2136.57
1260.08
1496
1817.24
1713.72
1528.06
2269.2
2098.78
0.726041
0.752579
0.787697
0.820099
1.3213
1.27177
1.20442
1.1331
0.865988
0.909171
1.06607
1.00828
0.953812
2902.63
2422.61
366.242
407.063
990.24
1881.79
2277.25
2424.04
1155.68
1260.37
1550.02
1968.76
2040.53
2051.5
2678.44
2237.11
3213.09
3027.77
2397.83
313.925
408.43
1333.8
4454.53
2421.79
2927.72
988.98
1163.25
1290.37
1654.64
2224
2895.9
4638.14
3463.63
2480.38
3244.27
3589.29
3080.88
2413.96
292.324
487.513
3079.11
2704.59
3774.76
876.86
999.841
1193.14
1365.72
1844.85
2687.33
6776.3
5315.59
3167.73
3689.72
3997.3
3097.68
2525.7
321.81
958.575
3286.64
5362.88
596.772
869.524
1048.57
1261.86
1514.91
2208.05
3718.95
12568.9
2698.39
3451.33
4263.81
4410.91
3167.29
2828.4
573.574
4696.77
129.272
537.009
868.455
1148.99
1397.43
1808.12
3042.44
7544.6
2974.23
3097.12
3751.52
5007.49
4811.54
3402.93
3637.13
10117.3
83.7196
121.434
493.388
873.592
1332.7
1665.97
2487.28
6174.41
2506.1
3424.98
3574.45
4141.47
6028.81
5286.06
4125.81
6825.94
91.177
88.144
117.567
463.073
887.864
1679.67
2289.51
4978.34
1309.77
3035.44
4004.93
4166.21
4653.42
7393.65
6188.21
7092.69
97.2222
99.1888
95.7634
118.768
447.175
922.854
2460.34
4556.48
1076.59
1492.06
3854.74
4793.73
4948.49
5462.44
9132.81
9414.36
97.6961
105.687
110.739
107.945
128.772
449.967
1032.46
5231
930.481
1174.29
1638
5311.26
5935.81
6118.94
7322.47
11237.3
92.358
106.143
117.891
127.696
127.768
160.265
520.67
1298.83
946.782
1045.28
1287.05
1763.33
8149.6
7698.83
8262.92
9319.69
85.3098
100.282
118.329
135.871
154.152
163.429
249.509
1060.55
1075.23
1057.94
1172.23
1442.33
1880.26
14018.5
10459.6
14415.2
128.448
89.7418
111.809
136.295
164.032
200.792
246.38
662.625
1335.8
1176.44
1182.76
1334.87
1686.78
2091.74
27318.4
13188.6
577.375
121.147
97.4211
128.803
164.449
213.973
307.769
600.126
2463.47
1551.25
1292.55
1344.69
1575.49
2120.47
3109.84
66802.9
901.624
523.238
117.72
109.703
155.408
214.402
328.797
763.843
2878.32
2845.47
1774.42
1450.63
1585.93
1988.52
3055.14
8277.19
1000.82
888.342
481.733
119.35
129.693
202.409
329.338
817.144
2613.73
3271.12
3268.09
2057.56
1697.32
2001.88
2868.89
6050.99
1174.37
1015.67
885.544
451.914
129.979
165.652
310.249
817.218
3252.24
3012.67
3738.57
3768.32
2483.08
2135.59
2891.16
5719.92
1268.91
1185.59
1069.47
890.701
436.044
162.056
249.013
767.08
3350.49
3576.75
3499.49
4304.68
4383.72
3216.56
3090.78
5795.68
1486.18
1271.55
1220.49
1176
905.924
438.765
251.671
601.851
3292.86
3821.21
3886.02
4083.58
5107.65
5178.12
4696.86
6241.33
1705.83
1513.7
1305.33
1295.64
1367.73
943.99
509.368
662.146
2894.47
3690.75
4438.81
4223.43
4846.33
6498.95
6509.32
9146.26
2081.52
1891.13
1763.57
1573.74
1385.72
1439.94
1727.38
1057.75
1047.96
2435.19
3005.08
4099.64
5264.88
4648.89
5860.25
9329.12
12224.3
1696.78
2082.92
1987.31
1868.42
1684.69
1541.81
1722.52
2538.55
1340.83
2175.77
2404.82
3048.82
4477.29
6379.95
5552.97
7992.59
15293.1
1849.63
1532.46
1655.47
2103.73
2130.35
2032.92
1882.57
1847.49
2376.75
5421.34
2185.36
2378.31
3073.37
4817.58
7786.97
7740.36
18039.9
1913.88
767.558
1437.74
1435.3
1655.98
2149.74
2379.93
2302.88
2257.97
2552.94
4759.83
851.742
1214.37
2240.55
2391.82
3148.2
5224.39
9545.25
10966.8
2072.84
601.033
1323.44
1380.92
1716.65
2234.08
2818.12
2786.84
3117.47
5150.49
678.526
1084.55
2377.33
2499.57
3381.86
6144.54
11967.9
2347.07
480.677
1261.06
1379.19
1878.52
2385.3
3654.11
3856.51
6353.89
563.613
1004.24
2650.62
2796.23
4103.39
9653.36
2831.14
396.118
1254.58
1449.62
2243.17
2651.4
5631.85
7835.36
489.632
972.736
3214.98
3592.78
7037.78
3662.81
339.604
1321.44
1653.67
3195.11
13420.9
450.536
999.63
4584.52
6728.1
5230.11
315.258
1521.43
2238.33
7538.29
448.496
1121.97
9844.9
343.174
2101.54
5136.66
527.162
1509.43
610.154
5000.06
1009.18
3464.66
0.906032
0.866226
0.890958
0.890871
0.920163
0.916348
0.929823
0.929208
0.947145
0.833827
0.854731
0.862929
0.886641
0.893335
0.916514
0.926064
1.00137
1.02547
1.04917
1.08566
1.11298
0.946249
0.958975
0.945323
0.946325
0.954569
0.949073
0.973687
0.96599
0.992033
1.15609
1.17647
0.806154
0.828105
0.839622
0.861544
0.873056
0.892909
0.909479
0.929312
0.945698
0.964033
0.983389
1.00295
1.03215
1.05962
1.10872
1.13625
1.22584
1.24071
0.976859
0.991811
1.0114
1.0275
1.05185
1.07375
1.11431
0.972263
0.976751
0.974637
0.973643
0.992973
0.981226
1.02188
1.00874
1.04181
1.1141
1.14398
1.31079
1.33675
1.22352
1.21766
1.29961
0.786534
0.805913
0.822436
0.841347
0.858981
0.877597
0.897736
0.915282
0.943082
0.963705
0.989034
1.00887
1.07433
1.10129
1.14852
1.17106
1.24334
1.26768
1.3495
1.38599
1.48062
1.49376
1.62831
0.999363
1.00867
1.02782
1.04397
1.06909
0.997957
0.999806
1.00858
1.00126
1.03386
1.01938
1.09376
1.06965
1.05299
1.07847
1.13809
1.14203
1.22528
1.25106
1.57255
1.3662
1.4881
1.31695
1.36276
0.775561
0.793398
0.813489
0.832502
0.853483
0.871477
0.894064
0.914374
0.935736
0.960914
0.991243
1.03247
1.16646
1.1075
1.21666
1.27019
1.34328
1.36515
1.45064
1.67529
1.7222
1.74167
2.01106
2.04327
1.94673
2.09039
2.09321
2.81786
1.02165
1.03131
1.04777
1.06376
1.14623
1.118
1.02626
1.02336
1.04387
1.03341
1.09658
1.07438
1.05995
1.19813
1.16828
1.08896
1.12845
1.15944
3.64983
3.08093
5.68428
1.23215
1.23551
1.32371
1.35545
1.61105
1.64242
2.30521
1.93569
1.55272
1.61972
0.78133
0.795388
0.820551
0.83655
0.862987
0.879671
0.908871
0.928738
0.991768
0.968325
1.04772
1.07485
1.17019
1.18632
1.36772
1.36297
1.5477
1.56073
1.73311
1.76463
1.9484
22.623
21.1799
12.5038
2.01014
2.23352
2.40833
2.67649
2.94996
3.09908
3.09176
11.6194
4.9314
1049.72
1328.23
1243.68
1827.79
1541.12
1655.94
1768.14
1837.1
1.04703
1.04917
1.07231
1.08638
1.14232
1.11815
1.05712
1.05061
1.10025
1.08146
1.07018
1.252
1.21984
1.18996
1.16376
1.10702
1.15408
1.2509
1.18739
1.24198
894.996
629.067
109.759
57.4979
25.053
2.45999
4.09512
5.38197
14.934
1.36628
1.37284
1.38258
1.37231
1.59768
1.62864
1.7793
1.70391
2.28975
961.175
1258.25
1472.74
1399.28
1619.73
1764.66
1798.31
1857.76
1809.47
1760.65
0.872241
0.838415
0.903276
0.891579
0.949638
0.942093
1.00021
0.996259
1.0529
1.05107
1.1204
1.11947
1.23833
1.26892
1.31933
1.33604
1.18145
1.45668
1.26825
1.32033
2.81178
2.80696
3.38549
3.80979
3.72411
58.3198
94.05
300.473
182.511
56.4251
39.2139
6.33608
8.38295
12.1625
11.4218
36.1479
16.8022
14.8472
390.162
930.568
614.515
675.462
956.024
1183.38
1309.87
1303.24
1608.35
1596.78
1606.07
1519.21
1823.43
1883.24
1918.1
1741.68
1891.02
1811.79
1.07565
1.07597
1.09701
1.1129
1.14477
1.12134
1.10973
1.09198
1.08169
1.30377
1.26924
1.23593
1.20897
1.18381
1.1606
1.12809
1.17384
1.18072
1.24293
1.24873
1.30964
1.24
185.285
492.071
331.466
848.193
525.149
92.1976
198.27
70.5393
23.7498
1.37278
17.4241
3.06251
6.26392
4.30579
1.54906
1.48379
1.66901
1.56336
1.70384
1.69506
1.93195
1.81065
3.07494
949.691
1332.3
846.871
1459.93
1649.85
1260.27
1490.17
1772.3
1777.57
1795.2
1615.38
1797.61
5.16768
1.15581
103.686
29.1541
2.4178
1.18274
1.78522
1.13455
1.48387
1.09089
1.32901
1.29325
1.24777
1.4055
1.37379
1.59991
2.2826
1.4779
2.75577
4.13907
4.22521
7.72516
22.2921
8.64425
9.29618
39.2881
42.6721
14.8776
13.599
19.0704
19.9676
26.6792
28.3083
122.084
185.446
344.758
238.074
132.748
83.7365
49.3265
54.2205
99.1129
66.7281
73.0187
608.5
480.493
648.906
963.317
854.295
1267.41
1172.32
1578.69
1415.67
1475.67
1678.48
1847.04
1773.97
1672.79
1856.45
1937.87
1945.47
1.13358
1.10419
1.10202
1.12192
1.14424
1.1257
1.11748
1.14613
1.3585
1.32211
1.28275
1.25211
1.22405
1.19715
1.1811
1.1587
1.40807
1.35052
1.40941
1.46357
1.42428
1.45733
1.19876
1.1945
1.20042
1.22572
1.38817
1.29658
1.33506
1.25648
505.802
397.244
234.299
35.6366
172.598
95.977
1.47144
1.75943
1.67116
44.971
4.37283
12.4926
7.73308
1.98241
1.90344
2.08374
2.00977
2.40789
2.09104
5.13607
465.911
1040.91
1313.68
901.523
645.945
1473.33
1207.06
1517.18
991.502
1797.2
1841.36
1923.67
1805.37
1664.91
222.288
246.254
59.0009
11.5517
252.711
218.873
30.4838
11.1172
21.3307
6.39361
13.486
4.23664
9.3547
2.36425
4.43333
10.128
30.3396
18.4102
37.2977
20.044
26.5483
65.0758
101.79
111.573
56.9278
53.9512
120.656
137.463
62.5673
70.1465
95.1679
96.2394
126.484
103.61
402.462
215.692
290.864
268.988
210.885
189.678
238.947
141.102
220.609
715.451
527.262
1197.76
937.116
1045.67
1487.75
1333.63
1675.51
1590.65
1779.57
1720.7
1.43958
1.40581
1.131
1.14765
1.15067
1.13511
1.13308
1.15818
1.17556
1.32593
1.28102
1.2634
1.22853
1.21538
1.18981
1.18094
1.1628
1.3706
1.33306
1.3531
1.37932
1.33165
1.36311
1.19457
1.2019
1.21629
1.26392
1.52118
1.38127
1.40932
1.3057
91.7212
191.447
291.52
1.63504
1.93456
1.91564
2.3089
2.32318
23.7187
102.281
7.08888
21.615
2.57289
2.33357
3.96305
2.99822
8.20429
314.419
604.555
518.124
1137.87
1172.08
1387.28
1803.07
1940.49
1029.52
1657.29
2063.75
2001.2
2022.28
1875.08
223.105
198.738
102.352
249.117
231.553
290.711
234.679
151.646
319.671
395.975
225.179
107.496
175.446
66.7695
124.804
50.7682
66.1037
89.0706
64.3547
143.592
110.082
103.079
103.679
113.188
219.937
241.713
259.844
295.883
188.763
181.488
321.623
339.362
206.533
226.618
290.413
283.414
325.124
552.356
456.735
517.308
358.688
458.262
467.919
415.287
503.806
1028.91
827.388
1386.27
1239.6
1594.72
1516.09
1676.69
1611.38
1.48239
1.42109
1.37562
1.34152
1.16716
1.16243
1.16397
1.17336
1.19275
1.29984
1.27313
1.24798
1.22828
1.20858
1.1944
1.18643
1.2969
1.31641
1.27663
1.30357
1.27943
1.30285
1.20878
1.20839
1.23915
1.33323
1.25347
1.21335
1.68004
1.52396
1.54366
1.41829
1.81489
234.393
140.69
2.21051
2.20633
2.57689
2.49984
3.53342
4.04525
2.5082
26.6635
127.29
31.9601
9.88368
6.2448
28.529
587.985
389.34
1298.99
1036.72
1762.26
1889.34
2168.29
2181.13
2255.85
2141.81
6.55301
33.2029
256.845
280.868
64.4628
236.924
310.726
252.147
417.656
447.116
256.887
338.19
455.19
436.257
454.402
299.534
376.824
278.188
242.604
228.087
388.361
291.02
401
332.512
340.45
455.483
503.164
503.182
531.537
448.697
427.736
379.69
594.381
611.953
472.966
491.777
631.953
628.668
821.019
927.444
805.259
768.241
834.108
745.645
807.056
1283.31
1180.86
1453.35
1385.05
1492.73
1430.57
0.890193
1.61773
1.49827
1.4598
1.41379
1.35988
1.32535
1.29072
1.18195
1.18254
1.1827
1.18469
1.21477
1.26211
1.24562
1.22513
1.21245
1.19958
1.23192
1.25322
1.23239
1.25517
1.24466
1.26405
1.21281
1.27078
1.28498
1.43224
1.25549
1.28161
1.92274
1.60347
1.68229
1.45239
2.26377
2.70484
2.83371
461.913
188.021
2.91637
2.46563
8.87951
4.68269
41.5949
34.9168
23.6338
142.687
231.755
81.115
1261.17
781.326
1932.01
1711.82
2234.53
2286.62
2499.91
2454.04
3.30201
20.3694
254.255
394.877
41.0542
148.94
413.955
329.85
325.707
438.783
344.935
274.498
602.009
411.701
540.996
576.302
579.234
583.895
581.534
505.489
496.701
622.398
596.207
604.521
625.73
752.513
708.914
724.519
731.253
747.719
717.599
856.409
645.362
696.697
875.848
836.894
790.221
804.213
931.358
930.888
1010.46
1012.34
1199.11
1053.74
1070.34
1306.99
1251.34
1303.48
1258.5
0.781635
0.836726
0.892828
1.51434
1.46198
1.44294
1.40826
1.39154
1.35813
1.31211
1.25437
1.28782
1.38025
1.40435
1.1987
1.18658
1.17922
1.18028
1.21528
1.1953
1.19122
1.20151
1.21511
1.20603
1.22689
1.22245
1.23847
1.22622
1.26187
1.3118
1.40588
1.45671
1.34233
1.83588
2.31331
1.59876
1.91023
2.57731
3.71462
2.82951
3.94296
7.57209
1.93747
913.623
535.065
38.145
14.8195
152.603
87.726
402.145
712.266
301.408
1810.82
1576.86
2277.19
2394.05
2706.45
2717.53
2.4193
12.8029
215.281
451.592
24.6232
97.8916
464.621
483.316
258.627
289.775
473.269
335.306
544.271
478.417
267.315
344.066
668.448
503.141
566.563
538.428
624.423
679.412
678.04
631.836
661.343
719.885
704.639
707.905
857.057
807.048
771.114
755.762
704.824
847.214
869.573
953.233
892.922
901.884
974.62
988.394
956.813
969.453
999.565
1016.47
1188.95
1142
1053.65
1180.32
1155.55
0.769986
0.791097
0.822715
0.890118
0.933339
1.4478
1.36857
1.35775
1.33361
1.33292
1.23059
1.27681
1.25672
1.3049
1.33148
1.31988
1.30181
1.32665
1.28939
1.28725
1.24438
1.2459
1.23097
1.19016
1.18803
1.18898
1.19275
1.22315
1.18834
1.19731
1.20446
1.21103
1.20837
1.22415
1.22852
1.26085
1.3551
1.29622
1.4303
1.57991
1.53282
1.6855
2.19868
2.73729
1.90715
2.29968
3.27625
5.01255
15.2309
10.9033
9.41888
21.6208
76.2131
66.4091
1702.21
1158.94
336.197
313.2
800.557
1244.78
767.793
2236
2431.36
2772.92
2943.76
1.95357
7.67104
163.995
428.394
14.2992
57.5634
439.833
556.649
313.463
255.459
544.094
424.436
359.281
293.966
242.549
246.851
564.127
543.071
306.541
428.599
351.364
433.552
542.406
627.294
607.755
596.825
558.889
567.584
511.584
708.515
705.195
591.571
515.942
543.301
530.39
719.36
766.952
974.464
1007.59
1004.39
985.671
990.898
1011.51
1029.6
987.088
994.233
1.31972
0.778938
0.786099
0.806121
0.83357
0.868093
0.933391
0.978074
0.801631
0.799774
0.834649
0.826193
0.874266
0.857844
1.20022
1.21132
1.15692
1.16987
1.10959
1.12645
1.05899
1.08127
0.918377
0.896816
0.964387
0.938615
1.01129
1.03398
0.984113
1.29945
1.28969
1.27295
1.28008
1.24858
1.23758
1.26401
1.25785
1.25578
1.24176
1.26506
1.21756
1.22071
1.17621
1.18212
1.22964
1.19305
1.20988
1.19148
1.20774
1.21014
1.20641
1.21315
1.21316
1.22396
1.23405
1.23272
1.23215
1.22916
1.3261
1.25583
1.48542
1.3756
1.57149
1.83144
1.72752
2.04201
2.70181
3.86999
2.41638
3.06725
4.5046
13.5964
163.033
101.106
194.198
42.8315
177.345
459.281
571.114
2268.46
1832.38
1136.82
1839.7
1212.19
2813.59
2895.94
1.54091
4.90526
413.391
102.334
196.349
8.68031
34.8222
563.434
596.206
367.373
280.73
588.94
457.152
638.753
238.56
235.143
227.405
422.499
366.662
215.425
255.273
283.497
236.717
375.747
438.226
399.2
355.223
375.481
329.62
388.128
315.702
400.772
254.04
337.263
237.586
321.39
552.403
990.598
950.107
683.079
938.719
895.125
1.23754
0.974107
1.01817
0.812893
0.821314
0.846415
0.879283
0.917854
0.831024
0.833085
0.857439
0.856409
0.891306
0.885174
1.13584
1.1485
1.0966
1.11239
1.05475
1.07228
1.01248
1.03276
0.931216
0.918551
0.970568
0.993203
0.954546
1.24802
1.23878
1.22896
1.24432
1.23655
1.20137
1.20682
1.19661
1.21977
1.16453
1.17085
1.12433
1.13403
1.23046
1.23152
1.23087
1.24264
1.23527
1.24233
1.24466
1.23724
1.24772
1.26794
1.25056
1.25272
1.24852
1.37825
1.30122
1.31055
1.63809
1.45828
1.74539
2.20434
2.08202
2.58879
3.54823
7.70769
3.17165
4.95919
9.87604
73.7789
582.931
736.123
513.386
752.841
198.589
631.041
1116.26
1423.76
1926.79
2962.93
2283.65
1.38676
2.19887
4.31931
234.569
483.922
58.1982
143.035
14.7393
543.077
662.111
344.31
251.182
633.883
390.947
665.243
623.284
511.576
508.01
197.485
214.837
283.728
247.465
179.394
191.879
201.33
179.891
237.75
264.193
251.513
223.49
214.557
199.239
170.669
160.192
142.637
124.371
166.032
118.628
708.55
194.797
506.697
2929.62
1.02201
1.09653
0.926369
0.984978
0.848528
0.86384
0.894125
0.86335
0.866589
0.88384
0.885396
0.911772
0.909879
1.08792
1.10111
1.05078
1.06884
1.01263
1.03248
0.977511
0.999197
0.945003
0.967257
0.936236
1.20964
1.2082
1.20322
1.19717
1.15771
1.17084
1.16293
1.19195
1.1228
1.13472
1.08865
1.10001
1.23242
1.21777
1.25805
1.24802
1.32397
1.29714
1.34019
1.32895
1.28117
1.29548
1.34732
1.30342
1.27877
1.37904
1.29804
1.29836
1.52589
1.51661
1.84002
1.82137
2.61142
2.47193
3.95764
2.9818
5.63141
18.1389
4.42578
8.08736
52.0921
252.438
502.041
1296.68
1412.34
1180.68
1228.74
1610.33
1973.19
2232.34
29.3304
1.17727
1.21557
2.02199
2.71459
8.90569
376.849
91.6091
184.845
625.159
436.675
230.087
299.208
634.157
654.335
319.825
410.4
664.096
607.61
527.126
419.924
171.519
194.328
187.619
178.244
153.369
157.357
152.093
152.949
156.305
166.771
118.733
122.031
95.7468
96.1659
85.7729
82.9677
112.612
84.2618
1.00075
1.06006
0.890954
0.912743
0.955972
0.897299
0.913246
0.913515
0.916999
0.933377
0.934147
1.05517
1.07046
1.01967
1.04267
0.989867
1.01106
0.961252
0.983511
0.958142
1.20658
1.18318
1.18136
1.18426
1.12978
1.14634
1.17927
1.14623
1.09631
1.11461
1.06783
1.08325
1.26461
1.24106
1.24013
1.30513
1.27975
1.41874
1.40565
1.39383
1.42676
1.54976
1.49886
1.50334
1.46504
1.43858
1.37221
1.33749
1.51337
1.45123
1.56273
2.04174
1.79877
3.35395
3.47561
2.42742
3.27233
5.42064
5.82939
23.7979
73.204
19.4755
201.973
414.397
744.331
1415.47
1955.16
1970.42
2306.35
8029.79
136.87
1.10117
17.5233
45.8427
1.21923
1.3003
1.3766
2.2337
3.12083
7.98772
372.767
258.446
642.169
584.2
200.733
254.094
699.544
679.921
276.614
367.97
641.887
560.2
427.565
146.729
170.525
125.897
129.962
129.497
119.653
103.218
106.032
86.0015
89.722
80.5176
81.7659
79.4788
82.2337
1.05139
0.93488
0.980091
1.01451
1.02546
0.932358
0.953152
0.94393
0.951776
0.957946
0.959413
1.03391
1.05669
1.00774
1.03023
0.981682
1.00503
0.980609
1.06156
1.17894
1.17788
1.18503
1.16164
1.13986
1.11594
1.18843
1.11465
1.09515
1.09131
1.25948
1.22231
1.28779
1.32954
1.33366
1.41547
1.3969
1.5576
1.59893
1.65679
1.63122
1.85369
1.84099
1.78113
1.59392
1.55439
1.75554
1.71624
1.89084
1.87982
2.63477
2.54369
6.41634
6.59756
6.16211
4.67036
35.5351
26.106
263.392
163.64
596.252
766.138
1117.59
1992.84
272.174
80.8529
134.742
1.26037
1.16925
12.4214
38.5825
1.34942
1.61137
2.19175
2.6534
7.94721
550.786
429.693
715.196
694.813
176.611
232.078
728.926
653.226
532.43
418.045
274.617
125.226
145.494
97.901
107.163
104.58
86.4643
90.1939
84.3639
84.9544
85.9994
87.684
1.11705
1.17988
0.983692
0.998062
1.06998
1.13916
0.97641
0.990801
0.977261
0.990007
0.989298
0.99571
1.05683
1.03962
1.01758
1.03432
1.01199
1.25356
1.09514
1.0789
1.07861
1.16921
1.17912
1.14512
1.23452
1.18693
1.15802
1.1281
1.34406
1.33125
1.42479
1.39269
1.52595
1.50933
1.72159
1.67313
1.92252
2.02105
2.51938
2.33829
2.21515
1.99715
1.91803
2.09198
2.0883
2.4218
2.49383
2.46508
5.33746
4.23304
38.6422
12.8472
17.628
10.2283
285.412
155.816
750.304
519.787
1064.07
942.841
417.501
191.959
282.783
62.9711
124.026
1.43774
1.2749
11.8877
32.5066
2.60607
1.53269
5.39114
676.726
581.287
757.682
774.649
237.927
173.911
144.464
736.597
544.119
440.063
309.737
254.376
102.061
116.778
87.1476
91.0286
85.7337
85.5746
90.9556
89.4935
1.21626
1.32552
1.02636
1.08749
1.13784
1.25687
1.02464
1.05613
1.03576
1.01045
1.04901
1.04778
1.08204
1.05604
1.07411
1.33072
1.2869
1.14469
1.12968
1.14664
1.13447
1.19878
1.26811
1.18057
1.20516
1.174
1.52401
1.51661
1.44902
1.66309
1.62412
1.87575
1.98875
1.94416
2.34748
2.28931
4.17608
3.2057
3.30993
2.99719
2.82391
2.71173
3.85048
3.84754
3.74809
3.38649
6.46912
23.4363
16.2582
200.6
90.1631
94.3456
586.282
408.984
961.91
783.684
342.135
538.406
645.318
163.777
314.226
48.7563
114.606
1.44838
1.8387
7.57175
31.1414
2.02681
4.61209
794.934
768.121
795.3
775.623
851.032
149.879
174.922
115.956
660.52
503.252
333.854
280.186
171.012
87.3781
97.3387
85.3406
83.4541
91.4547
88.6031
1.36534
1.56637
1.10103
1.17344
1.25167
1.43441
1.11159
1.08619
1.14858
1.14391
1.14106
1.13666
1.12916
1.42691
1.32284
1.19924
1.21047
1.18017
1.2373
1.31063
1.25819
1.31352
1.25216
1.85292
1.76022
1.71803
1.57723
2.28871
2.59688
2.40202
2.61257
2.95969
2.79325
3.89636
3.32937
4.96955
5.43437
5.37166
3.66104
8.26236
8.51993
6.59407
75.4025
38.1166
201.601
183.327
507.739
399.071
798.836
707.406
365.507
547.708
677.028
165.404
323.539
45.0325
113.792
2.51782
1.82671
7.94067
5.3299
24.0441
672.077
890.039
880.467
889.911
814.78