/*--------------------------------*- C++ -*----------------------------------*\
  =========                 |
  \\      /  F ield         | OpenFOAM: The Open Source CFD Toolbox
   \\    /   O peration     | Website:  https://openfoam.org
    \\  /    A nd           | Version:  8
     \\/     M anipulation  |
\*---------------------------------------------------------------------------*/
FoamFile
{
    version     2.0;
    format      ascii;
    class       volScalarField;
    location    "4000";
    object      k;
}
// * * * * * * * * * * * * * * * * * * * * * * * * * * * * * * * * * * * * * //

dimensions      [0 2 -2 0 0 0 0];

internalField   nonuniform List<scalar> 
4109
(
0.0294937
0.0310431
0.029742
0.0310134
0.0317424
0.0314663
0.0319627
0.03015
0.0330108
0.0325449
0.0325708
0.0333186
0.0298507
0.0316902
0.032409
0.0337109
0.0334961
0.03351
0.0338681
0.0325536
0.0299015
0.0313737
0.0314109
0.0345923
0.0346237
0.0350341
0.0295899
0.0316261
0.0298767
0.0348557
0.0335083
0.0328086
0.0313972
0.0312891
0.0322226
0.0351654
0.0350532
0.0361743
0.0318924
0.0298494
0.0315742
0.0317704
0.0302768
0.0355139
0.0341216
0.0954226
0.0481549
0.0334854
0.0329016
0.031251
0.0322431
0.0358538
0.0366373
0.0379046
0.0336105
0.0317948
0.029365
0.0318969
0.0323665
0.033146
0.0328796
0.121501
0.0367272
0.035103
0.034444
0.0418702
0.0870266
0.0337479
0.0327678
0.0324806
0.0393813
0.0373379
0.0425474
0.0413715
0.0411864
0.0341542
0.0340537
0.0326724
0.0311594
0.0328949
0.0325822
0.0329289
0.0334802
0.0336138
0.0384315
0.0452552
0.100153
0.131046
0.132414
0.0379105
0.0375049
0.0358032
0.0351129
0.0345487
0.0382825
0.0665305
0.0337304
0.0325639
0.0427003
0.0410166
0.0398859
0.0429949
0.043713
0.0432582
0.0434024
0.0352868
0.0347655
0.0339331
0.0321082
0.0341321
0.0388416
0.0333686
0.0338817
0.0341181
0.0346742
0.138215
0.0527472
0.0664561
0.0893298
0.140017
0.137571
0.0432875
0.0397092
0.0385823
0.036838
0.0361073
0.0354206
0.0344098
0.0668942
0.0344531
0.033817
0.043123
0.0417124
0.0448116
0.0440366
0.0455689
0.0443332
0.035968
0.0356533
0.0355731
0.0337213
0.0348152
0.039993
0.0339472
0.0345554
0.0350242
0.0352689
0.124869
0.0734969
0.140777
0.0934692
0.143831
0.0504027
0.0405643
0.0394826
0.0376552
0.0368703
0.0361797
0.0354487
0.0343828
0.0614655
0.0330332
0.0426388
0.0412535
0.0456743
0.0437598
0.046447
0.0468461
0.0476455
0.0371339
0.0366138
0.0363304
0.0345555
0.0358005
0.0412141
0.0347743
0.0354559
0.0356977
0.0363702
0.0857513
0.156859
0.0884552
0.147531
0.147762
0.0511686
0.038783
0.0397309
0.0378945
0.0361473
0.0370802
0.0356146
0.0673008
0.0339075
0.0409557
0.0420216
0.0451887
0.0433404
0.0464316
0.0480914
0.0477229
0.0507254
0.0379033
0.0376176
0.0376495
0.036175
0.036048
0.0414359
0.035504
0.0361264
0.0367111
0.0370908
0.0883171
0.158462
0.154126
0.0931434
0.157218
0.0507805
0.0388934
0.0400826
0.0375248
0.0364929
0.0688122
0.0349686
0.0411787
0.0424252
0.0445454
0.0436488
0.0459791
0.0480246
0.0491898
0.051137
0.053491
0.0391801
0.0385745
0.0383977
0.0372316
0.0369126
0.0424635
0.0370112
0.0362537
0.0400883
0.0375824
0.0382752
0.0849082
0.166451
0.0967924
0.161543
0.16343
0.0516287
0.0392032
0.0399783
0.037898
0.0722158
0.0353521
0.0415112
0.0424203
0.0449574
0.0439934
0.0463103
0.0473383
0.0495491
0.0514384
0.0529531
0.0570317
0.0401947
0.0393395
0.0387302
0.041063
0.0372226
0.0428849
0.0374982
0.0414014
0.0391362
0.0387238
0.173604
0.0846327
0.1689
0.100556
0.173558
0.0522264
0.178178
0.0390001
0.0403526
0.0738787
0.036156
0.0414863
0.042675
0.0450576
0.0440032
0.0466198
0.0476818
0.0489256
0.0514042
0.0533722
0.0562288
0.0566062
0.0607034
0.0393254
0.0407661
0.0390696
0.0422312
0.0424579
0.0379197
0.0437178
0.0391343
0.0404115
0.0397641
0.0849862
0.181524
0.175605
0.0991204
0.179874
0.0529425
0.192185
0.184677
0.201925
0.165711
0.185362
0.156429
0.0883277
0.0370693
0.0403171
0.0423383
0.0432152
0.0439457
0.045434
0.0467574
0.0477075
0.0491797
0.0578432
0.0504672
0.0532129
0.0559856
0.0613238
0.0648614
0.0632742
0.0693733
0.0416365
0.0411542
0.043447
0.0438745
0.0414032
0.039233
0.0452247
0.0398999
0.0409902
0.0875049
0.194279
0.18104
0.052872
0.291805
0.259642
0.201859
0.172462
0.195364
0.221414
0.0754763
0.0759825
0.0811417
0.159978
0.149359
0.151417
0.148046
0.159317
0.150559
0.0387264
0.0452331
0.0452825
0.0459864
0.0606697
0.0470051
0.0479487
0.0493294
0.0507211
0.0577031
0.0522391
0.0552907
0.0651246
0.0617056
0.0681427
0.0678822
0.0765104
0.0808355
0.0429086
0.0436708
0.0450706
0.0450186
0.0427835
0.0421231
0.0402972
0.0449227
0.0414816
0.091528
0.218421
0.302446
0.258241
0.177273
0.194673
0.221846
0.0795141
0.0814118
0.0869646
0.0826626
0.085638
0.132775
0.139184
0.139541
0.147218
0.160072
0.2404
0.119263
0.0441259
0.0474635
0.0471607
0.0600608
0.0611583
0.0491738
0.0491163
0.0506094
0.0523905
0.05714
0.0540081
0.0657927
0.0637523
0.0692208
0.0721347
0.0768433
0.0786503
0.0456584
0.0449447
0.0423631
0.0475729
0.0465223
0.0439286
0.0434544
0.0497168
0.0429092
0.0417909
0.0498537
0.0973209
0.294377
0.324317
0.260233
0.176716
0.19758
0.225335
0.0820357
0.0895074
0.0979474
0.087682
0.0919248
0.122685
0.10927
0.0871524
0.0904033
0.129305
0.137202
0.147586
0.158635
0.257677
0.211408
0.0650562
0.0491777
0.0496754
0.0593154
0.0612047
0.0502859
0.0506704
0.0523627
0.0541236
0.0560351
0.0663927
0.0639626
0.0696927
0.0728347
0.0749041
0.0782349
0.0475254
0.0496678
0.0476117
0.0438727
0.043934
0.0454458
0.0467594
0.0447534
0.0509279
0.0485202
0.169947
0.222087
0.0434373
0.0412715
0.304913
0.257193
0.255513
0.326934
0.265677
0.17739
0.199507
0.230036
0.0861815
0.0808368
0.0934813
0.0994576
0.0972087
0.107371
0.118065
0.0920539
0.0961632
0.127289
0.134558
0.147115
0.162411
0.318275
0.273419
0.319591
0.0649579
0.0524519
0.05115
0.0581017
0.0604347
0.0523505
0.0522428
0.0538896
0.0560982
0.0628431
0.0655458
0.0683769
0.0715453
0.07466
0.0773511
0.0791724
0.05073
0.0507087
0.0453181
0.0450457
0.0462647
0.0476403
0.0493121
0.0529671
0.0500676
0.0451154
0.051085
0.0557068
0.31422
0.260681
0.243283
0.192409
0.191702
0.331402
0.261553
0.17987
0.190323
0.209855
0.0906919
0.0845431
0.0826235
0.117015
0.102104
0.106039
0.0975871
0.101434
0.125649
0.133304
0.149907
0.164021
0.0870412
0.350416
0.329261
0.352889
0.0777364
0.0551277
0.053855
0.0581752
0.0604453
0.0540304
0.0539129
0.0560533
0.0628485
0.0654781
0.0682847
0.0713625
0.0739964
0.0759228
0.0790993
0.0798323
0.0532129
0.054194
0.0469656
0.0469711
0.0482613
0.0496738
0.0508926
0.0548004
0.0517955
0.0508242
0.046915
0.0479023
0.311106
0.166955
0.230566
0.222495
0.192826
0.334703
0.262779
0.175032
0.195203
0.215467
0.241861
0.0956993
0.0839854
0.0893884
0.0840318
0.103494
0.114226
0.108682
0.12574
0.138973
0.152621
0.160453
0.087932
0.386897
0.371453
0.405593
0.0809155
0.0590837
0.0559649
0.0604228
0.0579751
0.0560392
0.0561969
0.062665
0.0653808
0.0709957
0.0679701
0.0733245
0.0758572
0.0759436
0.0787373
0.0821519
0.056871
0.056096
0.0573878
0.0489199
0.0487301
0.0508966
0.0524992
0.0535602
0.0530926
0.0487641
0.0504368
0.316673
0.255876
0.144123
0.150031
0.205882
0.197877
0.174268
0.271596
0.331827
0.178324
0.194489
0.211276
0.236283
0.101053
0.0855576
0.0936483
0.0868777
0.0896802
0.110237
0.114315
0.106576
0.127834
0.140724
0.150769
0.164765
0.114259
0.425782
0.426241
0.439817
0.0927102
0.0628321
0.058068
0.0606819
0.0582862
0.058018
0.0632399
0.0653627
0.0704024
0.0681896
0.0741608
0.0760721
0.0781835
0.0808136
0.083856
0.060124
0.0598697
0.0596107
0.0555849
0.0509801
0.0510868
0.0525645
0.0534746
0.0544421
0.0507347
0.0545779
0.332287
0.280528
0.242757
0.220205
0.125446
0.133328
0.147221
0.189091
0.178081
0.162938
0.112964
0.273096
0.326601
0.331985
0.177865
0.194801
0.225571
0.211583
0.0993951
0.0881184
0.0924775
0.089379
0.112206
0.119609
0.105151
0.165273
0.130088
0.137725
0.152394
0.113158
0.47315
0.482273
0.505364
0.059929
0.0994585
0.0645881
0.0611478
0.0607653
0.066695
0.0651657
0.0716397
0.0720623
0.0693426
0.0750062
0.0783801
0.0814368
0.0646472
0.0625503
0.0620266
0.0576443
0.0568251
0.0527314
0.0522501
0.0541413
0.0559709
0.0525819
0.0562114
0.0689927
0.0741641
0.276864
0.245261
0.214982
0.196168
0.120339
0.135278
0.150085
0.170769
0.160963
0.108479
0.0999264
0.0926451
0.0825023
0.0790683
0.316712
0.265745
0.316411
0.271536
0.166291
0.179113
0.192034
0.220965
0.0985759
0.0905874
0.0934059
0.120369
0.112729
0.105503
0.102385
0.152049
0.151899
0.129711
0.141208
0.13685
0.561951
0.530008
0.526493
0.0666828
0.101098
0.0631772
0.064351
0.0721649
0.0683714
0.0746815
0.0773104
0.0802707
0.0648863
0.0643759
0.059975
0.0586213
0.0573937
0.0549057
0.0544396
0.0561992
0.060781
0.0546785
0.0761813
0.0696917
0.0729739
0.240222
0.219898
0.193322
0.175527
0.120687
0.137632
0.147274
0.15429
0.11371
0.0996839
0.102293
0.0776867
0.0909418
0.0802071
0.0844412
0.270056
0.251219
0.237679
0.216712
0.160549
0.174382
0.199627
0.149446
0.0968162
0.0934655
0.117314
0.108098
0.113227
0.106384
0.100771
0.142453
0.14388
0.130359
0.109742
0.615759
0.595907
0.58601
0.0835035
0.105978
0.0673841
0.0611386
0.0717544
0.0755896
0.0788879
0.0673075
0.0623843
0.0612879
0.0601526
0.0581436
0.0566672
0.0559436
0.0586225
0.0562865
0.0741112
0.0703321
0.211557
0.215162
0.197772
0.17387
0.157331
0.127472
0.135488
0.140605
0.116536
0.110487
0.102395
0.078811
0.0817585
0.0956394
0.0849412
0.0893226
0.224162
0.214856
0.211725
0.196732
0.140615
0.162656
0.171076
0.151435
0.194424
0.0963315
0.12077
0.11463
0.111044
0.10422
0.0994698
0.123612
0.130032
0.131213
0.115779
0.730967
0.687057
0.732806
0.133442
0.0708369
0.0790741
0.0747126
0.0781527
0.0650864
0.063498
0.0619533
0.0605186
0.0588306
0.0584205
0.0597702
0.058753
0.0741442
0.0679301
0.194005
0.195429
0.176158
0.155573
0.1426
0.125506
0.129216
0.116374
0.108725
0.101897
0.0777907
0.0812213
0.0959921
0.0856277
0.0902391
0.196333
0.189997
0.172801
0.126195
0.132678
0.142127
0.150054
0.175249
0.112162
0.107061
0.101981
0.117577
0.11505
0.122635
0.126159
0.855569
1.17256
0.32127
0.0750221
0.088047
0.0781119
0.0665036
0.0650156
0.0628517
0.0610202
0.0603374
0.0622024
0.0711032
0.0691893
0.175154
0.173412
0.156032
0.141084
0.130885
0.119481
0.111175
0.103882
0.0975483
0.0744834
0.0782483
0.0918788
0.0823183
0.0868735
0.171672
0.173263
0.15635
0.127904
0.133963
0.140934
0.12328
0.155992
0.108651
0.104318
0.112294
0.113359
0.118378
0.198961
1.66928
1.61406
0.579359
0.0801097
0.122194
0.0672455
0.0655821
0.0627094
0.0633864
0.0690105
0.0726282
0.0706923
0.156781
0.156541
0.14143
0.129762
0.12095
0.112623
0.105219
0.0989907
0.0758741
0.079843
0.0932561
0.0837555
0.0884257
0.154182
0.154669
0.142085
0.125249
0.129737
0.118804
0.141626
0.106208
0.10896
0.109898
0.112766
4.05682
0.331462
2.33356
2.47958
1.16847
4.49732
0.0682296
0.0658028
0.0670722
0.0668072
0.0772281
0.0734344
0.0713263
0.139985
0.140841
0.130337
0.120652
0.112196
0.10549
0.0990715
0.0773421
0.0806351
0.0940963
0.08502
0.088967
0.13751
0.137775
0.13022
0.119148
0.112973
0.127975
0.130351
3.27165
3.60137
0.636025
3.59989
3.58056
4.88554
3.96717
6.43362
0.0691853
0.0659336
0.0704061
0.0706079
0.0943544
0.0744883
0.0709335
0.131141
0.130744
0.120701
0.112466
0.105464
0.0995873
0.0780783
0.0817625
0.094423
0.089892
0.0856633
0.129611
0.122246
0.113346
0.120803
0.12326
0.122457
2.21231
2.86058
3.18062
1.2076
4.51407
3.48153
6.19989
6.25921
0.070938
0.0705044
0.0754161
0.135007
0.075358
0.0715699
0.11844
0.118977
0.11166
0.104913
0.0994222
0.0779733
0.0825347
0.094641
0.0904024
0.0862712
0.122343
0.115437
0.116253
0.11843
0.116892
0.116214
1.93735
1.80948
2.49659
2.7841
3.44197
5.86289
4.10807
3.02878
5.8636
6.0596
0.0731588
0.0746838
0.0803172
0.0744929
0.0754619
0.0775514
0.114041
0.106965
0.102066
0.0968118
0.0814783
0.0818165
0.093736
0.0890157
0.0867671
0.115173
0.112629
0.113614
0.111901
0.110957
1.52364
1.47752
2.16406
2.39518
6.31117
2.98063
5.59521
5.42197
3.68335
2.58977
5.49507
5.85228
0.0749061
0.0774224
0.0775026
0.0788066
0.08198
0.109998
0.105375
0.101391
0.0970385
0.0836362
0.0848377
0.0936749
0.090298
0.087576
0.109164
0.107279
0.105299
6.14489
1.19366
1.20104
1.84533
1.983
5.8959
2.5819
5.25547
5.15515
4.9655
3.23841
2.1313
5.09631
5.64072
0.0772131
0.0780771
0.0802053
0.0816229
0.104231
0.10242
0.0998777
0.0967541
0.0841728
0.0862863
0.0938316
0.0910668
0.0885803
6.72981
5.57147
0.933898
0.96129
1.51155
1.46821
5.43223
2.2269
5.10365
4.80247
4.70483
4.49143
2.74412
1.57434
4.65423
5.42233
7.71704
6.19532
5.00201
0.725591
0.73763
1.09834
0.599011
4.94387
1.88985
4.96102
4.68339
4.35607
4.24502
3.98919
2.11207
0.670457
4.12949
5.19139
8.45747
7.31823
5.61846
4.43877
0.548739
0.49182
0.398248
4.43006
1.55551
3.49738
4.65104
4.26075
3.91319
3.76504
3.42571
1.0466
3.41806
9.87289
7.99187
6.84959
5.00466
3.87346
0.367055
0.127285
3.86016
1.36409
2.74117
3.05138
4.32792
3.83806
3.46243
3.23626
2.71343
2.17242
11.1927
9.11938
7.55544
6.31333
4.3629
3.27774
0.0831726
3.12347
1.42685
2.37762
2.62969
3.9892
3.40461
2.97523
2.57811
1.51259
11.8841
11.1967
8.24774
7.11917
5.67985
3.68153
2.56272
1.72013
1.30821
1.27812
2.05794
2.21905
3.62367
2.93453
2.37942
1.484
12.1793
11.5551
10.9898
7.3554
6.64391
4.9084
2.8918
1.35747
1.48533
1.19871
1.14329
1.76411
1.80821
3.20578
2.35864
1.3931
8.19662
12.1426
11.0026
10.534
6.45822
6.09162
3.95756
1.65785
1.5976
1.38046
1.09211
1.01803
1.48137
1.38839
2.66789
1.4147
6.91039
8.08182
11.8262
10.2449
9.88045
5.55321
5.28139
2.5746
1.60919
1.48253
1.27297
0.984513
0.895801
1.19462
0.94877
1.76095
6.28297
6.61643
7.7486
11.2339
9.30195
9.05318
4.81242
3.46516
1.5121
1.49313
1.36503
1.15975
0.870532
0.763081
0.869658
0.468611
6.29847
6.10004
6.19628
7.25048
10.4073
8.29962
8.02745
3.54811
1.33095
1.40529
1.37475
1.24213
1.03568
0.740166
0.587254
0.403907
6.85152
6.0982
5.78508
5.70275
6.6326
9.25263
7.27785
6.53123
1.42725
1.21903
1.29609
1.25102
1.10841
0.889605
0.566537
0.262909
8.06066
6.54408
5.77278
5.38009
5.15371
5.89846
7.7483
5.84179
2.64729
1.27946
1.11041
1.1813
1.1165
0.952132
0.690991
0.250283
12.0188
7.92414
6.12341
5.36299
4.90071
4.53962
4.98507
6.14637
3.54067
2.30454
1.14514
1.00096
1.05558
0.959377
0.741558
0.334339
11.788
12.0215
7.56689
5.63391
4.88157
4.33948
3.81667
3.69466
4.9559
3.08134
1.99854
1.02014
0.884991
0.907656
0.747873
0.371166
11.101
11.5016
11.7713
7.04357
5.09028
4.31907
3.65336
2.89406
5.14
4.64476
2.64899
1.7142
0.897749
0.752486
0.706884
0.377015
9.73012
11.1099
10.9965
11.3095
6.3989
4.4825
3.63082
2.76275
5.23708
4.71769
4.32294
2.23266
1.4391
0.764237
0.576741
0.348486
8.4035
8.96548
10.9101
10.2895
10.6339
5.6257
3.75775
2.73038
5.56625
4.78101
4.29242
3.98432
1.81897
1.15962
0.58742
0.25931
7.78542
7.93341
8.09761
10.5008
9.4709
9.7008
4.69213
2.80421
5.85968
5.12669
4.3344
3.86755
3.61861
1.39801
0.842254
0.262831
6.75484
7.3817
7.48534
7.17694
9.87365
8.57772
8.27257
3.58554
6.65216
6.2661
5.42423
4.67834
3.89336
3.43184
3.19907
0.952057
0.382985
6.13716
6.2187
6.91593
7.01484
6.21128
8.97737
7.60695
5.67416
5.08225
6.44247
5.93841
4.97193
4.22053
3.44421
2.95772
2.65517
0.456122
6.24953
5.56199
5.63545
6.38891
6.51556
5.19661
7.65381
6.02965
3.40978
4.53508
4.68564
6.22492
5.56957
4.4993
3.74186
2.95733
2.37301
1.72594
5.84702
4.99027
5.0154
5.74334
5.93695
4.34543
5.36671
2.94596
2.06785
4.31061
4.02637
4.25839
6.00327
5.16717
3.99675
3.21288
2.36038
1.40391
2.44262
3.56293
5.39511
4.42557
4.37037
4.96641
5.13584
3.17583
2.53905
1.63353
3.82477
3.54589
3.81487
5.77792
4.71762
3.43138
2.55269
1.35591
1.98657
3.1355
4.91513
3.86041
3.68717
4.00683
3.44994
2.18682
1.28416
3.37771
3.0911
3.34975
5.54637
4.18058
2.71232
1.4398
1.61986
2.74904
4.40837
3.26562
2.89631
2.62356
1.85784
1.00844
2.95789
2.64638
2.83226
5.30097
3.44676
1.48559
1.3148
2.39058
3.84281
2.55427
1.67444
1.55496
0.78643
2.54671
2.17961
2.16832
2.14597
1.05079
2.04469
3.11245
1.35871
1.36864
0.59648
2.111
1.60599
1.04413
0.805812
1.6813
1.72991
0.399698
1.56809
0.662604
0.539078
1.2321
0.0959838
0.646726
0.148568
0.47483
0.0862871
0.084341
0.0856279
0.0856374
0.0870849
0.0868568
0.0875062
0.0875386
0.0882495
0.0827381
0.0838419
0.0842684
0.0854681
0.0857857
0.086933
0.0875458
0.0918813
0.0933125
0.0946462
0.0968905
0.0983352
0.0884445
0.0892436
0.0882735
0.0884319
0.088742
0.0883792
0.0896063
0.089337
0.0903769
0.10102
0.10218
0.0814158
0.0825202
0.0831421
0.0842319
0.0848572
0.0858043
0.0867988
0.0878894
0.0888481
0.0898277
0.0909299
0.092304
0.094125
0.0955447
0.0986411
0.100127
0.105623
0.106378
0.0902312
0.0911044
0.0921597
0.093122
0.0944961
0.0959456
0.098321
0.0896359
0.0900934
0.0896195
0.0896325
0.0905179
0.0898748
0.0918757
0.0913561
0.0927015
0.0981481
0.099964
0.110626
0.112302
0.104855
0.104606
0.109705
0.080411
0.0814368
0.0823017
0.0833109
0.0842604
0.0852594
0.0864626
0.0873952
0.0891224
0.0902121
0.0916829
0.0929464
0.0968695
0.0983069
0.101519
0.102627
0.107162
0.108427
0.11358
0.11573
0.122121
0.122225
0.129211
0.0910776
0.0918023
0.0927633
0.0937813
0.0952504
0.0908136
0.0910864
0.0911648
0.090853
0.0924218
0.0916466
0.09512
0.094064
0.0933457
0.0956634
0.0993135
0.0995447
0.104585
0.106208
0.125818
0.113816
0.121487
0.110583
0.113485
0.0800107
0.0809405
0.0820844
0.0830791
0.0843406
0.0852575
0.0867443
0.0876527
0.0892478
0.0902318
0.0924401
0.0945664
0.102716
0.0998362
0.106177
0.108641
0.113138
0.114625
0.119517
0.129268
0.134926
0.135766
0.149487
0.152105
0.145791
0.15432
0.154918
0.196044
0.0920559
0.092814
0.093634
0.0945893
0.097469
0.096225
0.0920967
0.0921329
0.092779
0.0923016
0.0952382
0.0942256
0.093481
0.0996736
0.0983496
0.0959513
0.0983931
0.100292
0.248566
0.214714
0.30743
0.104696
0.105007
0.110544
0.112791
0.127402
0.129512
0.165385
0.144634
0.121917
0.127972
0.0807237
0.0813108
0.082922
0.0835372
0.0853238
0.085895
0.0878885
0.0886648
0.0919127
0.0911182
0.0953283
0.096753
0.1016
0.103929
0.11342
0.111621
0.120915
0.129737
0.136739
0.137519
0.149364
0.714206
0.702251
0.493715
0.16234
0.171155
0.186434
0.192727
0.202533
0.217838
0.218453
0.491266
0.292903
6.43678
7.00329
6.85427
6.5413
7.16338
7.18531
6.95675
6.58406
0.0931956
0.0935564
0.0945592
0.0954935
0.0971854
0.0961145
0.0934788
0.0932971
0.0952796
0.0944604
0.093942
0.1019
0.100516
0.0992003
0.0980618
0.0967062
0.0996341
0.105657
0.101571
0.104957
6.03563
5.06816
1.86207
1.31922
0.772666
0.174865
0.2495
0.305502
0.564858
0.112766
0.113134
0.114129
0.113692
0.125771
0.127893
0.139688
0.136072
0.164166
6.22907
6.92
4.54372
7.14401
7.20562
7.19017
5.44584
6.07989
6.16813
7.17439
0.0869569
0.0845327
0.0886744
0.0873214
0.0910639
0.0900422
0.093667
0.0934915
0.0966621
0.096432
0.100463
0.100452
0.108176
0.111167
0.116756
0.115748
0.121484
0.146954
0.124682
0.159801
0.211213
0.203591
0.247689
0.248856
0.244043
1.27999
1.78638
3.42
2.48508
1.29583
0.996572
0.356842
0.394929
0.499068
0.505257
1.02154
0.596191
0.580094
3.88676
6.05864
4.96664
5.26925
6.15811
6.68958
6.92244
6.91546
4.97666
4.92463
7.12857
7.0825
5.5747
5.79466
6.38378
7.01991
6.60017
6.96502
0.0944606
0.0946744
0.0955554
0.096851
0.0972286
0.0962144
0.0957139
0.0950037
0.0946376
0.103986
0.102515
0.101115
0.0999382
0.0988843
0.0978917
0.0975097
0.100507
0.100881
0.104796
0.10529
0.109744
0.104594
2.68324
4.52684
3.53001
5.91348
4.61564
1.67624
2.70588
1.4347
0.753061
0.113111
0.609606
0.200158
0.348263
0.256111
0.123337
0.120036
0.129184
0.124184
0.132124
0.130858
0.149099
0.143166
0.200373
6.24616
7.08763
5.94624
4.28852
4.70125
3.65192
7.32324
7.42718
7.24734
5.99561
4.52769
5.61521
0.188916
0.103226
2.10931
0.646795
0.135799
0.10541
0.124311
0.105218
0.119364
0.104645
0.117852
0.112422
0.109902
0.121448
0.120482
0.14307
0.176028
0.165043
0.201432
0.283352
0.252524
0.336713
0.661816
0.377558
0.407577
0.903298
1.02987
0.552196
0.485862
0.656023
0.633746
0.798874
0.79968
1.9285
2.54676
3.68275
2.97812
2.08561
1.51577
1.1655
1.16977
1.75774
1.31116
1.42973
4.9384
4.32185
5.15461
6.16911
5.86756
6.84956
6.64563
7.10541
7.01168
7.05414
5.21985
5.77642
6.98974
7.00401
6.84517
6.81285
6.51202
0.0976846
0.0956962
0.0957571
0.096603
0.0971998
0.0964498
0.0961672
0.0983372
0.106113
0.104606
0.103011
0.101721
0.100582
0.0994378
0.0988004
0.0978644
0.108095
0.10574
0.107976
0.110326
0.108803
0.110229
0.101441
0.101339
0.101776
0.103443
0.113997
0.108283
0.110024
0.10542
4.62903
4.09863
3.03556
0.983904
2.53512
1.74127
0.119383
0.133559
0.131898
1.09827
0.262714
0.561113
0.364653
0.143607
0.1398
0.152451
0.148519
0.17622
0.165118
0.276664
4.41599
6.61344
7.22242
6.2329
5.30804
7.45524
3.35643
3.90488
2.72591
7.66178
7.44965
6.66574
5.50145
3.99913
4.73714
4.74151
1.19308
0.340616
4.56651
3.5841
0.686559
0.335038
0.521646
0.2545
0.401565
0.216295
0.342363
0.182616
0.247556
0.446092
0.779977
0.555128
0.962967
0.621012
0.758413
1.34645
1.67218
1.83023
1.18546
1.19758
1.86109
2.09402
1.24476
1.37553
1.67323
1.58421
1.95999
1.67461
3.94922
2.76634
3.31125
3.14333
2.68385
2.53697
2.90892
2.19028
2.70148
5.3885
4.52446
6.74396
6.05948
6.36838
7.07489
6.97272
6.92097
7.00093
6.52563
6.6131
0.10997
0.108458
0.0970656
0.098245
0.0975379
0.0969996
0.0970137
0.0985752
0.0997004
0.104782
0.102922
0.102217
0.10075
0.100235
0.0991504
0.0988472
0.098096
0.106734
0.104837
0.105984
0.107102
0.105414
0.106762
0.101115
0.101721
0.103038
0.105622
0.120591
0.113491
0.114323
0.108934
1.79917
2.65251
3.52824
0.129604
0.142667
0.141344
0.163725
0.159268
0.784253
1.83937
0.360459
0.709468
0.199293
0.182595
0.274137
0.236258
0.369704
3.59625
5.12916
4.76314
6.8786
6.98514
7.36267
7.79137
7.7195
2.65455
3.60156
7.40812
6.47094
5.72585
4.05168
4.7634
4.77061
2.0861
4.79465
5.11648
5.63871
3.79043
2.39507
5.78658
6.27726
3.3804
1.73739
2.62103
1.23134
2.01879
1.02323
1.35988
1.58039
1.20705
2.18808
1.79554
1.73131
1.704
1.82601
2.7768
2.87125
2.9994
3.31631
2.53573
2.37416
3.40283
3.59126
2.57489
2.82606
3.30494
3.11584
3.49712
4.70739
4.18924
4.54827
3.71785
4.26387
4.23183
3.99031
4.41093
6.37117
5.70637
6.97049
6.81798
6.91121
6.92582
6.35201
6.45623
0.111828
0.109318
0.107507
0.106011
0.0985784
0.0984298
0.0987418
0.0995365
0.100672
0.103867
0.102439
0.101764
0.100651
0.100238
0.0994199
0.0994636
0.103702
0.104573
0.103088
0.104272
0.103446
0.104478
0.102068
0.102171
0.103985
0.1098
0.105733
0.102594
0.130503
0.121563
0.122598
0.115458
0.138625
3.15798
2.29783
0.154913
0.151591
0.184892
0.179399
0.263973
0.313055
0.249378
0.790856
2.07716
0.956405
0.499546
0.417679
0.863007
5.07851
4.23305
7.38289
6.75871
7.96121
7.8472
7.56306
7.28698
6.88238
6.53763
0.210565
0.705345
4.68025
5.55235
1.28223
3.89436
5.77804
5.47016
6.30833
6.0583
5.52901
6.20893
5.92865
5.31243
5.37365
3.55666
4.29007
3.29641
2.92035
2.89815
4.23729
3.34035
4.18609
3.51546
3.69403
4.28981
4.65836
4.60107
4.71099
4.2516
4.11775
3.76116
4.92001
5.09276
4.25977
4.44574
5.11544
5.01074
5.81492
6.07997
5.63479
5.50615
5.80993
5.48547
5.69687
6.82111
6.70133
6.68314
6.72451
6.07281
6.17595
0.0883027
0.10937
0.112428
0.111046
0.109207
0.106993
0.105569
0.104043
0.09964
0.0998219
0.100173
0.100278
0.102631
0.102369
0.101657
0.10091
0.10042
0.100059
0.101264
0.102194
0.101461
0.102485
0.102115
0.103026
0.10225
0.10626
0.107063
0.116231
0.105175
0.106733
0.142573
0.126356
0.130055
0.117132
0.159459
0.186354
0.168467
4.47233
2.79446
0.249441
0.210163
0.489551
0.407449
1.21334
1.04738
0.886969
2.33083
3.05958
1.65901
7.34085
6.22768
8.09321
8.20938
7.95463
7.5603
7.10183
6.74544
0.148041
0.453007
4.10855
6.35622
0.843962
2.38461
6.33672
6.15549
5.94294
6.54587
6.07194
5.58295
6.94275
6.23711
6.8717
6.45786
6.04479
6.03681
5.6405
4.70251
4.75399
5.93697
5.41742
5.16859
5.39523
5.61155
5.49975
5.75642
5.68198
5.63651
5.58223
5.88759
5.13218
5.41451
5.92311
5.91099
5.63871
5.73429
6.03633
6.07642
6.29385
6.22872
6.63637
6.40267
6.38133
6.46165
6.51015
5.76731
5.92019
0.0812905
0.0851351
0.0894912
0.108534
0.111028
0.110167
0.108877
0.108317
0.106996
0.105156
0.102738
0.104171
0.107606
0.108723
0.10144
0.100388
0.0997168
0.0998969
0.100681
0.0999316
0.0998273
0.100272
0.100896
0.100628
0.101576
0.101466
0.102139
0.103059
0.105518
0.108912
0.114487
0.117225
0.110752
0.139025
0.163042
0.12556
0.142377
0.177427
0.231714
0.201068
0.251833
0.390171
0.285193
6.40951
5.35279
1.12056
0.821303
2.52886
1.97512
4.38492
5.80173
3.95294
8.41064
8.36465
8.49841
8.01774
7.69711
7.18748
0.132984
0.320064
3.27292
6.21652
0.55888
1.58579
6.09928
6.91295
5.33416
5.50443
6.67879
5.91879
6.84434
6.61174
5.25088
5.76549
6.50713
6.38554
6.50643
6.229
6.43512
5.79619
5.9939
6.12467
6.12156
5.87737
5.92129
5.7661
5.79636
5.75989
5.65394
5.70022
5.57799
5.42417
5.41741
5.94683
5.93583
5.96732
5.85146
6.00714
5.95806
5.98496
5.86728
5.99567
6.23267
6.29581
6.00682
5.5853
5.7507
0.0798488
0.0815217
0.083615
0.088262
0.0916249
0.107656
0.107288
0.106747
0.105892
0.105941
0.101945
0.103819
0.103085
0.104861
0.105327
0.105129
0.104386
0.105593
0.103394
0.103374
0.101401
0.101475
0.103489
0.100558
0.100018
0.100392
0.100161
0.101776
0.100291
0.100535
0.100848
0.101112
0.101416
0.101964
0.102342
0.105692
0.111407
0.107696
0.115577
0.12439
0.122094
0.130376
0.158393
0.18287
0.14262
0.161738
0.211098
0.27793
0.677988
0.612447
0.482525
0.912723
1.83745
1.79822
8.61399
7.78303
4.25725
4.43315
6.74688
7.91663
6.75009
9.19736
8.70629
8.4704
8.02944
0.125558
0.245027
2.48004
5.11471
0.386008
1.08094
5.20511
7.04072
5.64774
5.1575
6.79144
6.34766
5.66372
5.30652
4.96193
4.94017
6.01061
6.12616
5.20828
5.65353
5.40162
5.83883
5.75973
5.79534
5.78951
5.4221
5.45133
5.01493
5.00221
4.89239
5.17032
4.77354
4.62987
4.06503
3.69981
4.36707
4.45251
5.39154
5.81367
5.81694
5.30377
5.40229
5.45359
5.40803
5.04286
5.47744
0.105024
0.0799025
0.080699
0.0819036
0.083912
0.0863036
0.0905925
0.0941406
0.0809471
0.0809735
0.0825056
0.0822592
0.0844162
0.0837403
0.0994837
0.0998617
0.0976154
0.0980873
0.0956135
0.0962182
0.0934581
0.094258
0.0866419
0.0856733
0.0889929
0.0876984
0.0912483
0.0921055
0.0898988
0.104495
0.103983
0.103446
0.103806
0.102818
0.102498
0.103224
0.102315
0.102511
0.101934
0.103083
0.100439
0.100736
0.0985461
0.0988953
0.102416
0.100983
0.102224
0.100842
0.1016
0.101813
0.10161
0.101807
0.102012
0.102693
0.103012
0.103096
0.102795
0.103465
0.109279
0.105128
0.118745
0.112477
0.123784
0.137523
0.13294
0.14867
0.186413
0.23494
0.167925
0.200781
0.291733
0.634625
3.16024
2.39137
3.23223
1.46442
3.13977
5.22099
6.02681
9.54545
9.41798
8.34069
9.47976
8.53003
9.66766
8.84864
0.118736
0.195622
4.60838
1.71755
2.76445
0.285219
0.752045
6.18856
6.87952
5.795
5.20489
6.58342
6.1334
6.62708
4.77331
4.68338
4.68904
5.2788
5.18855
4.42675
4.66454
4.68011
4.42983
4.85238
4.99548
4.53558
4.47197
4.07634
4.01886
3.53992
3.60953
3.83254
2.86461
2.8776
2.57351
2.58373
3.31452
4.85847
4.73322
3.61405
4.18011
4.02287
0.105149
0.0928499
0.0964244
0.0817879
0.0827015
0.0843161
0.0865947
0.0892373
0.0826021
0.0829243
0.0837885
0.0838495
0.0852596
0.0851762
0.0966906
0.0972925
0.0948326
0.0956538
0.092828
0.0938449
0.0907285
0.0920256
0.0870419
0.0866909
0.08879
0.0901213
0.088347
0.102436
0.101959
0.10172
0.102488
0.102298
0.100005
0.100502
0.100096
0.10115
0.0982451
0.0987094
0.0964144
0.0969365
0.102126
0.102778
0.102457
0.104147
0.103578
0.103978
0.104325
0.103831
0.104639
0.10574
0.104368
0.104616
0.104146
0.112446
0.107891
0.108362
0.126972
0.117305
0.133922
0.156741
0.151198
0.177446
0.20868
0.422255
0.204688
0.27505
0.614709
1.98457
6.16301
6.89832
6.062
7.30884
3.95564
6.79714
8.47487
9.4221
10.4172
10.1903
10.2433
0.116245
0.145918
0.20091
2.92337
4.90769
1.11627
2.17672
0.444315
5.46916
6.40787
5.35441
4.77202
5.88363
5.50209
6.33766
6.4771
6.05845
5.81048
4.21267
4.3655
4.39346
4.28837
3.94383
4.01386
3.92852
3.81747
3.963
3.98706
3.62795
3.60154
3.1116
3.19177
2.5307
2.64747
2.09503
2.14647
1.90786
1.82296
3.29205
1.83751
2.80786
4.94088
0.0960342
0.101901
0.0893531
0.0931039
0.0838998
0.0852517
0.0871846
0.0845424
0.0849123
0.085459
0.085541
0.0866517
0.0866526
0.0947541
0.0953832
0.0931137
0.0938997
0.0913907
0.0922768
0.08976
0.090807
0.088204
0.0893012
0.0879222
0.10093
0.100875
0.100873
0.100672
0.0982255
0.0990551
0.098776
0.100148
0.0965682
0.0972837
0.0949501
0.0956691
0.102735
0.102123
0.104913
0.103949
0.109265
0.107569
0.110352
0.10946
0.106665
0.107689
0.110611
0.108403
0.106326
0.112142
0.107604
0.107722
0.12119
0.120593
0.139342
0.137174
0.174936
0.171519
0.232725
0.197731
0.317465
0.726219
0.261689
0.39969
1.72337
4.21522
6.44675
9.49179
9.57011
9.58214
9.76786
10.7102
10.6693
10.9655
0.709859
0.105827
0.109891
0.137706
0.181625
0.331776
3.99331
1.61546
2.42621
5.61015
4.40923
4.37389
4.8335
5.62511
6.04323
4.82454
5.30252
6.14273
6.08709
5.61295
5.18763
3.78878
3.97596
3.6214
3.63964
3.52904
3.54848
3.41328
2.95366
3.2299
3.19767
2.44866
2.63796
1.98455
2.15578
1.6366
1.75712
1.49817
1.47357
0.0939128
0.0973778
0.086462
0.0881809
0.0909663
0.0863004
0.0877632
0.0870141
0.0874327
0.0878744
0.0879427
0.093334
0.0942507
0.0916772
0.0929247
0.0903374
0.0914924
0.0890374
0.0902302
0.0890406
0.101338
0.0999625
0.100114
0.100505
0.0973036
0.0981383
0.0998359
0.098254
0.0957118
0.0966617
0.0943774
0.0951852
0.105275
0.104024
0.104053
0.107984
0.106118
0.114915
0.114256
0.113486
0.115835
0.122418
0.119665
0.120133
0.117331
0.116247
0.112351
0.110089
0.12013
0.116743
0.123324
0.147166
0.136965
0.216501
0.217162
0.170497
0.202773
0.311535
0.314288
1.00286
2.03146
0.892507
3.80881
5.77796
7.69126
10.4288
11.7991
11.5335
11.4772
1.4963
2.00914
0.0999549
0.539188
1.02687
0.107863
0.111952
0.119107
0.153624
0.196197
0.316539
3.9009
3.1543
5.57889
5.1348
3.91079
4.27557
5.87284
5.97444
4.2894
4.80374
5.75763
5.58931
4.93942
3.37368
3.55624
2.95521
3.10187
3.11388
2.96441
2.52392
2.65802
2.09082
2.27476
1.75618
1.8974
1.43176
1.60798
0.0965726
0.0890806
0.0922263
0.0943715
0.0946911
0.0884552
0.0900421
0.0886777
0.0895391
0.0893464
0.0896051
0.0927245
0.0938909
0.0916056
0.0925776
0.0904045
0.0914576
0.0903345
0.0943908
0.100275
0.100002
0.101444
0.0992536
0.0981084
0.0970251
0.1017
0.0971246
0.0962066
0.0961253
0.105105
0.103394
0.106927
0.10955
0.109695
0.114793
0.113569
0.123171
0.125328
0.128373
0.127292
0.140563
0.137736