/*--------------------------------*- C++ -*----------------------------------*\
  =========                 |
  \\      /  F ield         | OpenFOAM: The Open Source CFD Toolbox
   \\    /   O peration     | Website:  https://openfoam.org
    \\  /    A nd           | Version:  8
     \\/     M anipulation  |
\*---------------------------------------------------------------------------*/
FoamFile
{
    version     2.0;
    format      ascii;
    class       volScalarField;
    location    "18000";
    object      p;
}
// * * * * * * * * * * * * * * * * * * * * * * * * * * * * * * * * * * * * * //

dimensions      [0 2 -2 0 0 0 0];

internalField   nonuniform List<scalar> 
4109
(
-0.00551921
-0.0177665
-0.00878843
-0.0287345
-0.0298723
-0.0185172
-0.0286845
-0.0146577
-0.0391915
-0.0396615
-0.0389831
-0.0429227
-0.00912348
-0.0228742
-0.0317497
-0.0463237
-0.0506847
-0.046696
-0.0450618
-0.0419502
-0.00271246
-0.0324335
-0.0327358
-0.0537408
-0.0545835
-0.0622138
-0.00304036
-0.00825818
-0.00559349
-0.0520196
-0.0455566
-0.0470226
-0.0299835
-0.08687
-0.0618074
-0.0572078
-0.062212
-0.0762204
-0.0165337
-0.0050439
-0.000180387
-0.0132433
0.000370301
-0.0560869
-0.0517979
0.0902579
-0.0558568
-0.0470814
-0.0550413
-0.0764279
-0.0682989
-0.0658431
-0.0716379
-0.0884043
-0.0239683
-0.0109655
-0.00519814
0.0150117
-0.00958134
-0.0210203
-0.0678242
0.0650811
-0.0616243
-0.0561848
-0.0523039
-0.03371
-0.058524
-0.0519312
-0.0577272
-0.0536819
-0.105322
-0.0803959
-0.125615
-0.125505
-0.127083
-0.0299599
-0.0327583
-0.0231533
-0.0123308
-0.0206112
-0.0117974
-0.0150713
-0.0160045
-0.0261762
0.0156368
-0.206772
0.123733
-0.236276
-0.0080617
-0.0811835
-0.0712158
-0.061497
-0.0557027
-0.0533368
-0.054088
0.0316525
-0.0530288
-0.0620126
-0.125367
-0.108777
-0.0978366
-0.139419
-0.137304
-0.145537
-0.151038
-0.0344356
-0.0374268
-0.0399124
-0.0230622
-0.00477136
0.0639437
-0.0153707
-0.0156191
-0.0236596
-0.0302205
-0.578981
0.112124
0.0118666
-0.00549548
-0.309715
-0.120345
0.261545
-0.0882527
-0.0777315
-0.0695282
-0.0562376
-0.0550345
-0.0464354
-0.074411
-0.0632848
-0.0569431
-0.119835
-0.111588
-0.148542
-0.133422
-0.178069
-0.166459
-0.0416009
-0.0475704
-0.0504258
-0.0340261
0.00853469
0.0595803
-0.0129563
-0.0243077
-0.0271602
-0.034538
0.087976
0.0820177
-0.215337
-0.100481
-0.137513
0.0954459
-0.0861918
-0.0841207
-0.0756699
-0.0600892
-0.0485974
-0.0437199
-0.0396117
-0.00604749
-0.0286301
-0.108918
-0.099944
-0.148015
-0.123336
-0.166231
-0.181398
-0.214682
-0.051986
-0.0581078
-0.0627523
-0.0509177
0.00797414
0.0295672
-0.0198806
-0.0237461
-0.0259086
-0.0427851
0.0191924
-0.158054
0.0162175
-0.0696997
-0.0838191
-0.0218405
-0.0802976
-0.0852332
-0.0723096
-0.0458572
-0.0460238
-0.0281093
-0.0138438
-0.0106959
-0.093001
-0.100404
-0.138519
-0.111905
-0.157371
-0.185243
-0.216272
-0.256734
-0.0663079
-0.0724864
-0.0756637
-0.0670323
-0.0157309
0.00398518
-0.0100887
-0.0119384
-0.0241722
-0.0567895
-0.0928338
-0.103648
-0.0846873
-0.0154264
-0.0943428
-0.0462618
-0.0767816
-0.0781682
-0.0944554
-0.0487035
0.0960973
0.0668189
-0.0807219
-0.0858977
-0.127625
-0.0966684
-0.147253
-0.178753
-0.215543
-0.256296
-0.302558
-0.0824529
-0.08665
-0.0872662
-0.0800833
-0.00852874
0.0294237
0.00992813
0.0132291
-0.0989565
-0.0381481
-0.0735878
-0.0638591
-0.0630654
0.0545824
-0.138815
-0.208918
-0.0525775
-0.0850056
-0.0603601
-0.0900519
0.0604719
0.0675251
-0.0632629
-0.0654737
-0.11155
-0.0766365
-0.130949
-0.16977
-0.206456
-0.249027
-0.29831
-0.349495
-0.104211
-0.0950614
-0.0918129
-0.116295
0.0209811
0.101317
-0.017294
-0.113199
-0.0906343
-0.0616285
-0.175193
-0.129471
-0.231199
0.0634917
-0.19708
0.0101115
1.07808
-0.0565133
-0.0102352
-0.337548
-0.0964549
-0.0535684
-0.0290438
-0.0862046
-0.0442684
-0.108795
-0.152938
-0.196013
-0.237298
-0.285768
-0.333315
-0.37028
-0.382953
-0.113539
-0.11681
-0.108188
-0.134076
-0.130486
0.0198091
0.100885
-0.0553823
-0.107446
-0.0841841
-0.0650439
-0.222308
-0.0283546
-0.0483627
0.402686
0.0501071
1.08397
1.12371
1.13623
1.02863
1.02887
0.970455
-0.661615
-0.249112
-0.148089
-0.112456
0.0147427
-0.04637
-0.0386968
-0.0805106
-0.131948
-0.177998
-0.371041
-0.226035
-0.271875
-0.32231
-0.394448
-0.400691
-0.411487
-0.386438
-0.136888
-0.136416
-0.153367
-0.148404
-0.125049
-0.0256063
-0.0109039
-0.0909352
-0.103893
0.335401
0.118141
1.01262
-0.10503
1.19984
1.16356
1.16965
1.07775
1.19667
1.21865
-0.314707
-0.362278
-0.329339
0.946683
0.922011
0.993066
0.909659
1.01658
0.109464
0.164709
0.161045
0.0235204
-0.0273187
-0.399095
-0.104628
-0.108904
-0.155072
-0.204734
-0.359994
-0.260841
-0.310793
-0.43765
-0.418986
-0.424639
-0.437553
-0.427239
-0.437878
-0.16647
-0.159399
-0.174265
-0.165223
-0.142
-0.122684
-0.0966677
-0.153447
-0.104094
0.778542
0.616185
1.24479
1.23206
1.15619
1.27704
1.30565
-0.247293
-0.192402
-0.194884
-0.484428
-0.319412
0.827166
0.812171
0.842578
0.942102
1.08284
-0.0892801
0.446098
0.435975
0.0324352
-0.0787624
-0.394258
-0.420851
-0.114472
-0.130852
-0.173673
-0.234262
-0.354249
-0.302703
-0.472962
-0.451011
-0.484066
-0.47455
-0.51804
-0.597356
-0.197883
-0.185688
-0.120147
-0.203092
-0.178611
-0.158251
-0.138448
-0.223416
-0.108681
-0.077768
-0.104787
-0.26307
1.20504
1.32594
1.32302
1.23145
1.3711
1.40716
-0.797772
-0.018431
0.188007
-0.081299
-0.097336
0.629663
0.410337
-0.313583
-0.168653
0.7164
0.842809
0.987726
1.1651
-0.155413
0.0241074
0.132288
-0.0272261
-0.101541
-0.400934
-0.445775
-0.128745
-0.143986
-0.191639
-0.269377
-0.354386
-0.528272
-0.491345
-0.552829
-0.553426
-0.655059
-0.867386
-0.231924
-0.24475
-0.215995
-0.123045
-0.134631
-0.174444
-0.193954
-0.150517
-0.245253
-0.215766
-0.521866
-0.250491
-0.239586
-0.0475168
1.25017
1.23364
1.16548
1.42901
1.42567
1.32472
1.48584
1.53929
-0.632136
-1.19522
0.0453704
0.200346
0.072157
0.402803
0.584331
-0.099109
0.0133278
0.71178
0.870651
1.07811
1.27825
-0.257036
-0.225486
-0.229229
-0.0574423
-0.0468367
-0.101263
-0.414276
-0.477041
-0.136454
-0.160602
-0.225625
-0.323237
-0.539822
-0.597568
-0.643712
-0.666895
-0.869453
-1.17153
-1.45097
-0.269861
-0.282438
-0.145787
-0.140717
-0.165221
-0.185304
-0.209493
-0.281818
-0.24253
-0.202734
-0.0787229
0.366415
1.32564
1.30232
1.2398
1.07005
1.16187
1.54986
1.55075
1.43835
1.59975
1.63095
-0.393915
-0.99793
-1.71263
0.550719
0.253611
0.353282
0.129794
0.184874
0.731252
0.967482
1.22458
1.41146
0.302631
-0.185556
-0.252054
-0.261187
-0.10103
-0.0211854
-0.0519478
-0.394022
-0.477871
-0.19846
-0.135134
-0.285675
-0.567967
-0.663838
-0.756106
-0.829809
-1.0998
-1.38822
-1.76782
-2.05782
-0.315332
-0.320787
-0.120824
-0.147889
-0.166043
-0.187209
-0.223589
-0.317967
-0.283335
-0.244866
-0.0486645
0.0239507
1.43187
0.967938
1.34164
1.27481
1.14734
1.67643
1.68075
1.56807
1.72245
1.73618
1.70149
-0.110416
-2.17663
-0.695715
-1.36905
0.337179
0.548032
0.369691
0.824998
1.15493
1.385
1.5622
0.0282323
-0.113634
-0.173772
-0.141454
-0.0749038
0.0940005
0.0348759
-0.481347
-0.371496
-0.264253
-0.182417
-0.601613
-0.736747
-1.00263
-0.872878
-1.3075
-1.96694
-1.62631
-2.26199
-2.49965
-0.359568
-0.356515
-0.355717
-0.134694
-0.155796
-0.195304
-0.246853
-0.321014
-0.282284
-0.0871884
-0.0732906
1.55512
1.43174
0.823093
0.955819
1.33534
1.21936
1.04428
1.79477
1.78982
1.70887
1.84584
1.84018
1.8166
0.159231
-2.72873
-0.336217
-1.78267
-0.950552
0.495312
0.658568
0.394366
1.0279
1.33453
1.55786
1.73
0.0200551
-0.0201887
-0.0981195
-0.101833
0.0297705
0.178748
-0.00186366
-0.511148
-0.358599
-0.268558
-0.680254
-0.836002
-1.16721
-1.00311
-1.55543
-1.96333
-2.32571
-2.73475
-3.0967
-0.4009
-0.393517
-0.396038
-0.364761
-0.142046
-0.163163
-0.218349
-0.280998
-0.323125
-0.0767684
-0.0420937
1.6777
1.58288
1.51707
1.41456
0.634668
0.81531
0.926401
1.29241
1.15709
1.0056
0.422165
1.88452
1.87225
1.79089
1.85981
1.95484
1.91877
1.95464
0.0572294
-2.27491
-0.508161
-1.31442
0.657086
0.862846
0.429379
1.91286
1.22043
1.53121
1.7598
0.045601
-0.0417472
-0.0818322
-0.0519606
-0.163513
0.0330174
0.0559684
-0.533448
-0.345427
-0.895991
-0.758101
-1.3182
-1.66339
-1.15499
-2.21129
-2.8423
-3.36273
-0.416218
-0.449797
-0.444682
-0.415469
-0.373125
-0.156809
-0.182071
-0.254303
-0.324339
-0.0770749
-0.0296316
-0.396538
-0.339511
1.69515
1.61903
1.5028
1.37956
0.643388
0.811367
0.945374
1.23296
1.08885
0.456348
0.208087
0.00844102
-0.159851
-0.27431
1.91063
1.94409
1.87871
1.80039
2.09566
2.00663
2.0367
2.00002
-0.0355648
-1.73926
-0.792521
1.04823
0.783962
0.642208
0.38249
2.20316
1.98363
1.44653
1.7803
0.0311389
-0.110535
0.0176815
0.498307
-0.351057
-0.0489863
-0.724623
-0.493349
-1.56041
-1.15068
-1.92891
-2.78844
-3.50377
-0.464219
-0.490532
-0.474074
-0.433721
-0.378884
-0.177074
-0.220498
-0.303523
-0.0573795
-0.0712834
-0.333932
-0.44038
-0.371032
1.71403
1.60607
1.47787
1.32229
0.661672
0.834389
1.00269
1.15678
0.497057
0.254733
0.33405
-0.330788
0.0552889
-0.24433
-0.113836
1.8992
1.96487
1.81807
2.03616
2.25047
2.12705
2.08115
2.38175
-0.247208
-1.14003
1.28123
1.15727
1.02122
0.999772
0.319956
2.0715
2.34366
1.78102
0.219217
0.148273
0.901551
0.566279
-0.251009
-0.390962
-0.876927
-0.564816
-1.67069
-2.56248
-3.49805
-0.519093
-0.532582
-0.505429
-0.451491
-0.368856
-0.22885
-0.280337
-0.0935627
-0.106774
-0.410965
-0.520144
1.83133
1.71874
1.58643
1.42848
1.2383
0.691715
0.884535
1.0601
0.535132
0.378836
0.189345
-0.41606
-0.367215
0.0386006
-0.277984
-0.137317
1.92417
2.00412
1.94482
2.12187
2.55421
2.39933
2.23111
2.531
1.94682
-0.483678
1.71687
1.59074
1.4388
0.940346
0.234359
2.36226
2.20645
2.52617
0.198214
0.636242
2.16092
0.458431
0.47674
-1.23376
-0.76841
-2.1579
-3.33665
-0.587016
-0.581653
-0.544674
-0.462277
-0.298007
-0.362447
-0.15546
-0.149048
-0.521875
-0.627572
1.83645
1.71223
1.55029
1.33484
1.13107
0.739102
0.935437
0.573971
0.382151
0.187894
-0.503505
-0.44114
0.00021312
-0.334142
-0.182996
2.08373
2.02868
2.28301
2.93888
2.71638
2.73413
2.55353
2.00289
1.88095
1.55931
0.983546
2.28391
2.72095
3.03324
0.121146
0.849585
-0.129415
-0.19798
-1.67408
-0.962935
-2.98706
-0.65564
-0.645745
-0.590352
-0.295469
-0.454052
-0.346287
-0.648088
-0.720322
1.6942
1.84749
1.4584
1.20402
0.998506
0.783495
0.603295
0.395179
0.171215
-0.626252
-0.554662
-0.0555455
-0.432148
-0.262146
2.13772
2.23391
2.52646
3.24884
2.98232
2.83347
3.49521
2.04463
2.12933
1.73263
2.66902
3.11726
3.54217
-0.208051
0.0814465
0.121558
-0.195094
-2.39543
-1.35322
-0.746081
-0.717146
-0.486955
-0.603237
-0.620927
-0.760472
-0.84276
1.6303
1.82899
1.32167
1.07378
0.837298
0.638497
0.401905
0.141209
-0.753651
-0.68495
-0.120152
-0.550474
-0.357163
2.25316
2.42309
2.80928
3.51109
3.17325
3.92375
2.0295
2.44912
3.13025
3.71755
4.23676
-32.1611
-0.239558
0.284699
0.336561
-0.404098
-31.4209
-0.852477
-0.764734
-0.888798
-1.0058
-0.709504
-0.912036
-0.993425
1.7514
1.51225
1.19666
0.910295
0.689407
0.412376
0.106033
-0.924105
-0.853463
-0.198301
-0.699519
-0.474843
2.65418
2.34254
3.29013
3.97102
4.59888
2.52075
2.07562
-34.241
-32.1613
-0.147937
0.149636
0.193658
-29.3904
-31.2953
-31.6576
-0.989118
-1.03998
-1.1725
-1.19753
-0.824938
-1.11761
-1.19046
1.71652
1.41369
1.0331
0.779259
0.429918
0.0515993
-1.17489
-1.09393
-0.311392
-0.638458
-0.905871
3.09206
3.90919
4.73341
2.93844
2.51729
2.07912
-35.2226
-34.3101
-32.162
-0.503884
-28.7995
-31.0357
-33.8526
-30.8688
-1.32366
-1.49509
-1.54134
-1.34412
-1.42995
-1.46555
1.64133
1.24321
0.941285
0.470033
-0.0075959
-1.56706
-1.43716
-0.448993
-0.843081
-1.1766
3.75833
4.71495
2.85153
3.50995
2.52587
2.06905
-36.0581
-35.3695
-34.3438
-32.146
-34.9176
-27.3718
-28.5579
-30.7829
-33.9884
-30.657
-1.76584
-1.98076
-2.32044
-1.92785
-1.76925
-1.93917
1.5136
1.01729
0.454149
-0.102807
-2.15643
-1.86641
-0.628229
-1.10129
-1.5161
4.54759
3.21389
4.20037
2.76773
2.20234
-36.0681
-35.4942
-34.3601
-32.1257
-33.7248
-35.158
-27.516
-27.3732
-28.4294
-30.5557
-33.9022
-30.6423
-2.30498
-2.89572
-2.43822
-2.56368
-2.69988
1.6074
1.00505
0.377173
-0.258437
-2.53288
-2.2513
-0.862544
-1.40875
-1.88461
3.72433
3.13599
2.45532
-38.6474
-35.9431
-35.5806
-34.3699
-32.1026
-33.7936
-35.3209
-25.4048
-27.5544
-27.3424
-28.3373
-30.3485
-33.7771
-30.5622
-3.21643
-3.36467
-3.41144
-3.36266
1.74576
1.00954
0.259431
-0.472715
-3.13234
-2.76596
-1.15598
-1.77305
-2.31519
-41.4818
-38.7544
-35.8266
-35.6421
-34.3814
-32.08
-33.9292
-35.4804
-24.9741
-25.4237
-27.5842
-27.2942
-28.265
-30.1634
-33.6333
-30.3941
-46.175
-41.6717
-38.8268
-35.7397
-35.6872
-34.3953
-32.057
-34.0433
-35.6526
-20.9994
-25.1545
-25.4389
-27.5877
-27.2674
-28.1933
-30.0444
-33.4852
-30.1924
-48.8755
-46.0098
-41.7774
-38.8871
-35.6814
-35.7225
-34.4116
-34.1292
-35.8418
-25.331
-20.8017
-25.2872
-25.4381
-27.5722
-27.2566
-28.1166
-33.3658
-94.0855
-48.414
-45.9741
-41.8513
-38.9164
-35.6433
-35.7451
-34.1793
-36.0161
-20.0815
-26.1121
-20.8104
-25.3516
-25.4366
-27.5474
-27.2625
-33.3124
-30.7276
-103.371
-47.2708
-46.0222
-41.9066
-38.9218
-35.624
-34.1801
-21.6754
-20.201
-26.9367
-20.8396
-25.3763
-25.4371
-27.5224
-27.2694
-44.7726
-31.143
-112.308
-46.0144
-46.0933
-41.9344
-38.9109
-34.1495
-20.9368
-21.7421
-20.2702
-27.7228
-20.8745
-25.3784
-25.4438
-27.5129
27.291
-52.3657
-30.8417
-120.371
-44.7442
-46.1556
-41.9396
-38.8865
-20.8894
-20.8942
-21.8204
-20.3415
-28.4515
-20.9192
-25.3721
-25.4518
34.8888
30.3893
-60.8383
-30.3278
-127.468
-43.4586
-46.1522
-41.9216
-20.4705
-20.8338
-20.8538
-21.8755
-20.4274
-29.1576
-20.9481
-25.3811
47.2598
35.9786
33.5059
-68.6895
-29.6898
-134.164
-42.2799
-46.0798
-20.4774
-20.4017
-20.7792
-20.8199
-21.9138
-20.5241
-29.8407
-20.9377
49.9593
48.123
37.1028
35.8247
-75.8277
-28.8922
-141.176
-41.4793
-20.9043
-20.4061
-20.3285
-20.7262
-20.7941
-21.9418
-20.6187
-30.2664
49.885
50.5108
49.028
38.0311
37.7675
-82.8313
-28.153
-146.46
-20.9524
-20.8463
-20.3313
-20.2606
-20.6761
-20.7749
-21.9636
-20.6875
47.4709
50.4769
51.123
49.7585
38.9256
39.5756
-90.6207
-28.045
-21.6906
-20.9071
-20.7903
-20.2624
-20.2006
-20.631
-20.7592
-21.9781
34.5043
48.1968
51.0672
51.6784
50.347
39.888
41.3632
-97.2239
-20.0365
-21.7617
-20.8658
-20.7356
-20.2015
-20.1488
-20.5959
-20.7477
27.0174
35.5486
49.0555
51.6046
52.1639
50.8362
40.904
42.6143
-25.329
-20.1212
-21.8408
-20.8312
-20.6836
-20.1489
-20.1103
-20.5788
-43.7001
29.9403
36.6481
49.7598
52.0779
52.5916
51.2153
41.5735
-20.9957
-26.1647
-20.1841
-21.8974
-20.8055
-20.6365
-20.1097
-20.0926
-29.8528
-51.3061
32.8533
37.5394
50.3291
52.4964
52.9473
51.4335
-24.8868
-20.7889
-27.0014
-20.2515
-21.9377
-20.7863
-20.5995
-20.0916
-94.0939
-30.324
-59.6563
34.9492
38.3895
50.7936
52.8435
53.1486
-25.3641
-25.0674
-20.7903
-27.787
-20.3321
-21.9685
-20.7707
-20.5815
-49.0274
-103.797
-29.8941
-67.3203
36.6973
39.3247
51.1612
53.0398
-27.5204
-25.3888
-25.1952
-20.8173
-28.5136
-20.4216
-21.9927
-20.7591
-45.7815
-48.5014
-112.852
-29.198
-74.248
38.3678
40.2812
51.3719
-27.2572
-27.5458
-25.4043
-25.2541
-20.8524
-29.2165
-20.5112
-22.0085
-41.6604
-45.6409
-47.3035
-121
-28.385
-81.0747
39.9875
40.8816
-30.5866
-34.3101
-27.2645
-27.5753
-25.4052
-25.2753
-20.8963
-29.8863
-20.5735
-38.3507
-41.8292
-45.6344
-46.0409
-128.2
-27.4513
-88.5964
41.2288
-28.2283
-30.5195
-34.3406
-27.2332
-27.5807
-25.4051
-25.2718
-20.9234
-30.2994
-33.9217
-38.4738
-41.9244
-45.7043
-44.7705
-134.985
-26.6188
-94.9844
-34.6798
-31.0218
-27.9101
-30.5904
-34.271
-27.1847
-27.5668
-25.4074
-25.2641
-20.9127
-33.8198
-38.5558
-41.9986
-45.7956
-43.4949
-142.101
-26.4823
-35.0379
-35.8585
-31.8097
-30.8222
-27.792
-30.5459
-34.1889
-27.158
-27.5435
-25.4142
-25.2712
-35.2968
-34.1266
-33.9383
-38.6215
-42.0541
-45.8721
-42.3097
-147.468
-35.2159
-35.9059
-31.7635
-30.5501
-27.6914
-30.4143
-34.08
-27.1513
-27.5201
-25.4231
-35.3817
-34.2024
-34.065
-38.6556
-42.0885
-45.8768
-41.5518
-35.3624
-35.7984
-31.7293
-30.3092
-27.6168
-30.2263
-33.9623
-27.1555
-27.5104
-35.4995
-34.2104
-34.1613
-38.6674
-42.0995
-45.8079
-35.5189
-35.6819
-31.7009
-30.0958
-27.5681
-30.0182
-33.871
-27.1613
-35.5898
-34.2179
-34.2178
-38.6585
-42.0855
-35.6922
-35.5927
-31.6732
-29.8981
-27.5175
-33.8361
-35.6544
-34.225
-34.225
-38.636
-35.8539
-35.5342
-31.6441
-29.7276
-27.4517
-35.7017
-34.236
-34.1959
-35.4973
-31.6104
-29.6167
-35.7388
-34.2516
-35.4786
-31.5872
-35.7637
-34.2683
-3.24518
-3.62982
-3.68181
-4.19545
-4.17322
-4.74235
-3.17464
-3.64119
-2.71816
-3.9609
-4.02782
-4.58084
-4.66998
-5.33346
-5.33499
-6.00219
-8.06288
-8.83023
-8.89191
-9.80721
-9.62911
-5.98236
-6.65943
-4.71089
-5.32974
-3.55937
-4.09171
-2.60555
-3.01676
-2.13424
-10.5595
-10.1933
-4.15197
-4.33877
-4.93473
-5.04206
-5.65425
-5.87017
-6.63403
-6.66001
-7.42502
-7.36655
-8.07747
-8.82679
-9.61137
-9.6012
-10.4411
-10.622
-11.6239
-11.518
-6.60363
-7.31911
-7.28655
-8.07638
-8.00817
-8.7969
-9.28447
-5.21488
-5.84586
-3.91252
-4.47445
-2.83494
-3.26595
-1.94128
-2.27228
-1.46056
-8.66664
-9.06797
-12.4871
-13.4076
-10.1284
-10.9175
-11.8829
-4.23595
-4.47004
-5.09283
-5.33376
-6.032
-6.14162
-6.8839
-7.18166
-8.00967
-8.09262
-8.88808
-9.65968
-10.5006
-10.4568
-11.2957
-11.2504
-12.2176
-12.3845
-13.0863
-13.4106
-14.509
-14.0186
-14.8917
-5.68737
-6.47172
-6.57916
-7.25721
-7.45036
-4.26817
-4.88913
-3.01125
-3.50611
-2.01504
-2.36147
-0.702812
-1.1846
-1.44887
-7.11985
-7.89174
-7.63993
-8.79032
-10.1568
-14.4679
-12.5276
-13.9182
-11.3882
-12.5555
-4.14836
-4.49684
-5.16137
-5.45539
-6.17909
-6.47817
-7.20848
-7.4113
-8.22346
-8.49656
-9.17847
-9.66147
-11.2041
-10.8265
-12.2282
-12.2429
-13.3101
-13.2356
-13.872
-14.658
-15.1215
-15.1813
-16.0953
-15.8089
-15.6505
-16.2122
-16.339
-17.5352
-4.90432
-5.72696
-5.32944
-6.04359
0.142295
-0.339967
-3.35037
-4.08307
-2.02806
-2.50808
-0.515847
-1.08545
-1.356
1.03106
0.585434
-5.66684
-6.45762
-6.31133
-18.6727
-17.6043
-19.3071
-7.66415
-8.97244
-10.267
-11.4447
-13.728
-14.8605
-16.5315
-15.8712
-12.698
-13.7839
-3.9123
-4.33696
-5.05585
-5.457
-6.21558
-6.55371
-7.31443
-7.63694
-8.73389
-8.40622
-9.6149
-9.81148
-10.7126
-11.2721
-12.8866
-12.366
-13.831
-13.948
-14.6316
-15.2084
-15.0768
-20.6336
-21.0436
-19.7893
-16.1816
-15.9516
-16.9398
-16.8996
-17.2555
-18.0617
-17.6496
-19.7811
-19.0374
-29.4176
-30.1368
-29.7966
-32.4022
-31.2305
-30.7657
-30.9956
-30.6792
-3.67661
-4.26114
-3.71772
-4.40399
0.510706
-0.0596944
-2.11635
-2.69115
-0.253465
-0.940934
-1.26677
1.92348
1.54966
1.57431
1.06398
-3.94608
-4.83187
-7.6671
-4.49075
-6.01434
-29.1129
-27.5412
-23.5053
-22.7477
-21.3693
-16.9852
-18.378
-19.1465
-20.5975
-7.88545
-8.98675
-8.8395
-10.3711
-11.7034
-13.007
-14.3088
-15.1305
-16.5031
-29.8193
-30.7814
-32.3325
-30.6942
-32.1291
-33.7905
-32.6397
-31.795
-33.0578
-32.8797
-3.3885
-4.0066
-4.81713
-5.31531
-6.13872
-6.56663
-7.48045
-7.7697
-8.56985
-8.84789
-10.2389
-9.76957
-11.0921
-11.2496
-12.2631
-12.8364
-12.8749
-14.2132
-13.8037
-14.9754
-15.6829
-15.631
-16.6543
-16.7343
-16.3701
-21.9894
-22.9078
-25.027
-24.164
-21.6481
-20.7346
-17.6766
-17.7564
-18.3616
-18.6287
-20.6006
-19.4099
-19.0863
-25.6183
-27.6007
-27.1668
-27.7156
-27.0947
-29.182
-29.4249
-30.0077
-32.0809
-31.1059
-31.5452
-31.2638
-31.6521
-31.7631
-32.3046
-31.9945
-31.5394
-31.6606
-2.04628
-2.55555
-1.84115
-2.54045
1.00999
0.317675
0.147277
-0.66155
-0.96712
2.7647
2.45257
2.58172
2.15469
2.24403
1.69506
-1.70261
-2.32857
-3.64553
-3.97615
-5.50853
-6.40398
-2.94102
-24.7505
-27.1939
-26.113
-29.936
-28.6115
-24.0382
-25.2237
-23.4111
-21.448
-6.46776
-21.1921
-17.4104
-19.7809
-18.7424
-7.54755
-8.52436
-10.0699
-10.5597
-12.1246
-12.5729
-14.3573
-15.348
-17.1007
-30.0298
-30.9
-29.8941
-32.877
-32.5959
-34.1708
-32.3532
-32.2089
-31.4065
-31.9428
-33.1761
-32.8707
-2.7258
-3.36991
-2.13792
-2.19546
-4.32755
-5.03579
-6.00493
-6.48486
-7.49548
-8.02855
-9.11379
-9.23193
-10.5247
-11.3715
-10.2519
-12.0104
-12.6115
-13.5631
-14.0839
-14.8983
-13.5536
-14.0913
-15.5845
-15.6222
-15.6474
-16.4632
-16.3385
-16.4363
-16.4215
-17.1679
-17.2783
-17.9828
-18.3474
-22.5813
-23.5681
-24.6448
-24.0205
-22.2572
-21.5688
-19.312
-19.617
-21.3984
-20.4242
-20.3359
-25.4585
-25.106
-25.5131
-28.2886
-27.1456
-29.001
-28.776
-30.464
-27.5598
-30.0247
-30.2924
-31.7324
-31.3446
-30.9968
-32.2429
-30.3124
-31.4081
-0.4445
-0.248746
-0.652725
0.0284822
1.68524
0.927194
0.735899
0.289695
3.58235
3.34693
3.60368
3.2496
3.4546
2.96523
3.07648
2.4176
4.30772
4.16578
4.89184
4.91469
5.47963
5.33384
1.08747
-0.512244
-1.29632
-1.33787
-5.18763
-3.44425
-1.5706
-0.791693
-28.6184
-28.1951
-26.5842
-22.4409
-25.6989
-24.2359
-4.90145
-6.65095
-8.42406
-22.7348
-18.5889
-21.1645
-19.9418
-10.1761
-11.2337
-12.7496
-13.2518
-14.8721
-15.4197
-17.4215
-28.9561
-32.6822
-33.3094
-32.1852
-31.2123
-34.2031
-35.2124
-34.3795
-35.1929
-33.0231
-33.0066
-33.584
-34.3232
-33.938
-1.3128
-1.82428
-4.31544
-4.36974
-3.12928
-3.72929
-5.6892
-6.24638
-8.04774
-8.09345
-9.19068
-9.66584
-11.2702
-11.2222
-12.1077
-12.6955
-13.6614
-13.9834
-14.9074
-14.7497
-15.5001
-16.1025
-17.0246
-16.6798
-17.3038
-16.9663
-17.679
-17.7144
-17.9426
-17.873
-18.6599
-19.0001
-19.6476
-20.0241
-24.1689
-22.9141
-23.7961
-23.2242
-22.2193
-20.6227
-21.6084
-21.042
-21.4539
-26.3347
-24.8986
-27.4015
-25.8807
-27.8957
-28.1148
-27.4117
-31.0254
-28.86
-32.9077
-31.0281
5.53865
5.80876
0.938885
1.14346
2.43998
1.69
1.82244
2.12673
2.42315
4.50837
4.21131
4.51562
4.12578
4.39816
3.88204
4.12932
3.45858
5.35353
5.21125
6.02196
6.03295
6.63203
6.44332
2.9634
2.53655
2.46806
0.684322
-3.09583
-1.52736
0.148147
1.39588
-24.7227
-26.7395
-27.9304
-3.17433
-5.20605
-7.07083
-9.12241
-10.9841
-22.5916
-24.4227
-18.8675
-21.6971
-13.0081
-14.2184
-16.3998
-16.814
-19.0524
-28.8129
-31.0351
-30.6001
-33.7369
-31.2437
-32.8306
-34.6336
-34.6345
-35.3523
-33.4098
-34.4583
-34.6944
-35.1014
-33.9231
-1.11834
-3.10709
-2.28262
-1.9286
-2.37064
-4.07297
-4.97179
-5.35339
-4.07547
-5.21392
-7.91379
-8.15606
-9.57279
-9.04678
-11.9353
-12.1799
-14.3218
-13.2923
-13.2718
-14.0633
-14.2789
-15.3028
-15.6116
-16.3176
-16.7346
-17.7493
-18.3062
-18.2088
-17.9839
-18.5693
-18.685
-18.2514
-19.52
-19.4316
-19.4525
-19.9139
-21.3376
-24.7065
-24.2758
-23.2629
-22.0764
-21.5009
-22.9158
-22.5885
-22.0517
-25.5388
-25.411
-27.3639
-26.4994
-27.6455
-27.767
-27.884
-27.5822
5.54601
5.92717
6.58899
6.93023
3.64192
3.01926
3.33212
4.38202
4.28386
5.67179
5.39433
5.84881
5.26855
5.54026
4.88506
4.99274
6.48959
6.59662
7.33997
7.29566
8.01682
7.68693
6.15553
4.91598
4.23758
3.41202
4.65523
7.65305
-1.37944
0.282204
2.42148
4.09833
-1.22571
-28.5561
-26.417
-2.96841
-5.25843
-7.44225
-9.7689
-12.8416
-14.9459
-14.4497
-21.3293
-25.9666
-23.6186
-17.8032
-18.3744
-20.981
-31.9811
-29.9547
-35.0328
-33.5788
-35.6341
-35.6669
-36.1408
-35.2613
-35.3757
-34.0493
-2.96215
-2.40509
-2.71721
-3.80264
-3.9259
-3.30215
-4.04265
-5.79559
-6.84162
-8.02709
-6.40387
-8.10585
-8.09375
-8.95382
-12.9767
-12.2161
-13.7255
-13.8918
-16.78
-15.0193
-14.8973
-14.1741
-16.1547
-17.6017
-17.1328
-18.3568
-18.5462
-18.3323
-19.1659
-18.3606
-19.5011
-20.0019
-20.0559
-18.8725
-20.6494
-20.0527
-20.5536
-21.7281
-22.7597
-25.771
-25.0405
-21.8368
-21.9586
-22.8669
-22.4154
-25.995
-25.8127
-27.0513
-26.2273
-27.5475
-26.9709
-3.52494
-3.58835
5.337
5.84537
6.47938
6.94266
7.66379
8.21516
5.93668
5.79173
6.73563
7.81329
8.4227
7.10372
6.82591
7.31708
6.60148
6.98206
8.08853
8.08844
8.91676
8.82794
9.67018
9.11296
9.6367
7.6811
6.26809
6.63227
10.3765
9.55558
1.01746
2.95502
5.67322
7.28191
1.34249
-0.672166
-2.80562
-32.4303
-28.7021
-5.7687
-8.80946
-12.1702
-14.4246
-18.3606
-19.7897
-23.54
-27.3416
-30.3869
-25.0982
-37.6126
-35.1165
-38.4322
-38.7247
-39.1219
-37.9519
-38.9968
-38.151
-4.27639
-4.01022
-5.15735
-5.22593
-6.07592
-5.42204
-6.28731
-7.71739
-8.60476
-9.70902
-8.44335
-9.70284
-13.7132
-11.0132
-12.1946
-13.1298
-14.118
-14.0928
-15.2803
-17.5617
-16.0608
-17.4376
-15.8989
-18.7116
-18.0485
-20.3105
-18.7501
-19.6383
-18.9491
-19.1243
-19.012
-20.0046
-20.3961
-20.349
-20.5156
-20.1572
-21.3194
-21.1485
-21.8483
-22.1377
-23.3831
-22.3042
-24.3936
-23.4759
-23.6318
-25.2082
-24.9417
-25.5716
-25.05
-3.97006
-4.14369
-4.96341
-4.97802
4.89109
5.49144
6.07474
6.64274
7.29596
7.96296
9.50864
8.81024
4.26665
4.88401
10.5917
10.2081
8.37161
8.90338
8.89795
8.5662
9.14967
10.0817
9.89401
10.8808
10.6275
11.2732
10.4374
12.0952
12.5905
13.4408
12.5768
9.34941
10.382
6.27962
4.27517
10.663
9.0914
5.24606
2.71501
-1.24686
3.59534
-4.17332
-6.89039
-37.5719
-33.8673
-11.2018
-15.702
-22.5587
-24.4016
-33.5541
-38.4806
-32.807
-39.9277
-40.0492
-41.5772
-41.0219
-42.3
-40.9866
-5.83032
-6.27353
-6.94007
-7.10009
-8.14659
-7.57071
-9.01227
-9.86128
-10.8735
-11.9157
-10.8855
-11.921
-14.8387
-13.8811
-13.1847
-14.1659
-17.7681
-14.9693
-15.3115
-16.9446
-16.4432
-18.205
-17.5121
-17.8081
-17.8341
-19.3102
-18.8081
-19.9193
-20.1046
-19.7025
-19.7768
-19.4918
-19.456
-20.4413
-20.6103
-20.6777
-21.0141
-20.4432
-20.6853
-20.2822
-21.8148
-21.3274
-23.5979
-22.4417
-24.7819
-23.5265
-21.8614
-25.0629
-24.5623
-4.25689
-4.48791
-5.19066
-5.41242
-6.18009
-6.39036
5.38574
6.07018
6.62482
7.36397
10.8192
9.01123
9.97635
8.13394
3.53249
4.12773
4.52504
5.22394
2.72013
3.31086
1.86002
2.43014
12.5957
11.2463
10.8661
11.8509
11.1171
11.9151
12.3872
12.0622
13.2512
12.4732
12.7795
12.0869
11.9022
14.0725
15.0207
15.2624
16.542
15.9668
13.7411
13.0865
10.0371
8.11651
14.4175
13.0866
8.90778
6.51267
-0.349404
-5.24197
6.45025
2.57602
-8.62535
-14.0318
-45.3834
-42.8019
-23.2498
-31.7288
-40.8439
-46.2275
-39.7554
-46.3908
-44.327
-46.4224
-46.0746
-7.35093
-8.1434
-10.2962
-10.3693
-9.39565
-9.40688
-11.1458
-12.1633
-13.0783
-13.9282
-13.4555
-14.1663
-16.0159
-15.0039
-14.7013
-15.2918
-18.0249
-17.8705
-16.9289
-18.3724
-16.9263
-17.4169
-18.6633
-18.9671
-18.2199
-19.4501
-19.4335
-20.6732
-20.2634
-20.2609
-20.1877
-20.1315
-20.7563
-20.7183
-20.5464
-20.7295
-20.6227
-20.4003
-21.1862
-20.5725
-21.2649
-23.6305
-21.4524
-21.7749
-25.1509
-21.6838
-7.7604
-4.21425
-4.51007
-5.2321
-5.57715
-6.32692
-6.63647
-7.32748
-4.18872
-4.47575
-3.99109
-4.35321
-3.66288
-4.06677
0.999081
1.4922
0.142182
0.564481
-0.693723
-0.320164
-1.44541
-1.16743
-3.25893
-3.70223
-2.72556
-3.19185
-2.1284
-1.92269
-2.60472
5.69239
6.54654
7.17844
8.15372
10.0917
11.0194
8.97831
3.6031
4.29661
4.67348
5.43413
2.59107
3.2498
1.52317
2.12776
10.8859
13.5838
14.997
13.7227
14.2229
13.8425
15.3951
14.7662
15.8235
14.9618
13.1415
13.3441
11.8686
16.4353
16.7985
17.1456
18.4877
18.3605
20.0835
20.0829
17.7271
17.2758
14.3934
12.3282
18.9188
17.581
12.6335
9.78314
-10.5702
-1.3682
-9.02148
8.35076
2.85161
-20.5388
-24.8486
-47.8466
-50.2384
-35.6419
-65.9557
-55.8807
-54.2274
-46.8722
-8.80614
-9.57455
-11.7078
-11.8962
-12.0014
-10.7196
-11.4631
-13.5258
-13.9988
-15.1054
-15.3907
-15.0089
-15.9801
-15.6784
-16.3754
-17.1842
-16.2447
-19.4188
-18.8705
-17.725
-18.082
-18.8895
-18.5392
-19.5032
-19.4506
-20.3919
-20.4008
-20.5671
-20.4646
-20.9422
-20.9287
-20.8458
-21.1551
-20.882
-20.9661
-20.9344
-20.6339
-21.0491
-20.6353
-20.4813
-24.7728
-20.7004
-9.10888
-7.58532
-8.39455
-5.12831
-5.53787
-6.25203
-6.64438
-7.31491
-4.90246
-5.30011
-4.61845
-5.06387
-4.20721
-4.68186
0.489984
1.00562
-0.481948
-0.0620781
-1.4388
-1.06261
-2.23626
-2.01466
-3.65959
-4.17246
-3.00651
-2.78953
-3.55142
5.86941
6.89495
7.45307
8.72926
9.54673
3.47639
4.25551
4.52061
5.42499
2.19408
2.91417
0.879957
1.54872
8.93736
11.2177
9.77477
17.2368
16.9894
16.442
18.2481
17.4576
18.0411
15.9722
14.3287
14.0964
12.2717
20.2375
18.9329
19.0959
21.9437
21.8788
23.9585
24.0602
22.1723
22.3203
19.1248
17.0892
24.1467
22.6385
17.4226
13.8311
-13.2541
-21.8272
-2.31576
-12.1782
11.0408
3.29173
-29.032
-30.7967
-40.6536
-88.0012
-80.2997
-10.0513
-10.6908
-11.6278
-12.7172
-13.4416
-13.2092
-13.2466
-12.6682
-16.0344
-16.6189
-17.2011
-17.2166
-16.4494
-17.7417
-17.0531
-17.8944
-18.2164
-18.5565
-18.2489
-18.0669
-19.7449
-19.4136
-18.8825
-19.0864
-19.7506
-19.4554
-20.152
-20.4293
-20.6367
-20.6582
-21.1634
-20.9981
-21.0316
-21.1514
-21.3847
-21.3437
-21.3909
-21.3181
-19.9946
-21.5774
-20.8145
-30.1284
-9.04629
-9.89742
-7.73387
-8.62819
-5.9754
-6.44472
-7.29657
-5.77306
-6.28784
-5.31408
-5.8955
-4.68253
-5.26901
-0.25729
0.223199
-1.33346
-0.914501
-2.38938
-2.0188
-3.21984
-3.03676
-4.0256
-3.85248
-4.61226
5.77067
7.01177
7.64117
7.18926
3.00271
3.87731
4.05503
5.09787
1.49492
2.27841
0.00930392
0.793866
9.28663
7.8399
11.601
10.0793
17.4589
17.4229
21.0637
20.3162
19.6538
18.7278
21.3906
21.0709
12.4149
16.8165
15.2382
14.1299
23.3722
23.2518
25.8029
25.5243
27.0457
27.9106
26.5127
28.0008
24.0214
22.317
28.7487
27.5196
23.6444
19.7136
21.4941
-18.9645
-28.784
13.9337
-6.13926
-17.846
-32.5724
-28.7025
-13.8466
-10.2177
-11.0398
-11.7335
-12.7205
-13.5999
-15.9008
-14.4733
-15.3576
-17.6899
-17.2415
-18.7443
-18.8104
-17.2582
-18.573
-19.0887
-19.2024
-19.3572
-18.9376
-19.2444
-19.4967
-19.3922
-19.3497
-20.2188
-20.0201
-19.7584
-19.8366
-20.1559
-21.0416
-20.5716
-20.7584
-21.0868
-21.1024
-21.2513
-21.2449
-21.0495
-21.1657
-21.8461
-21.1457
-9.09969
-9.81851
-7.19985
-7.74146
-8.63992
-6.59997
-7.23967
-5.91544
-6.57311
-5.1829
-5.85525
-1.20415
-0.72582
-2.43392
-1.9871
-3.54353
-3.2401
-4.37021
-4.2286
-5.05767
7.10404
5.32721
6.21048
5.82629
2.31138
3.19651
4.16702
3.38149
0.711842
1.5283
-0.999557
-0.214795
9.06668
7.08273
5.74483
11.3898
9.63875
17.9137
20.6872
19.5911
20.4569
24.9455
23.5901
24.7846
22.6694
22.9451
14.954
12.4499
17.6613
16.3085
19.2539
27.6075
27.1389
30.8487
33.301
30.3948
31.1647
31.7613
32.4591
33.43
28.747
29.7138
29.8608
25.4777
27.0676
25.7086
21.251
-21.7823
-39.9735
-36.0735
-15.8438
-10.2824
-14.3938
-14.8894
-11.308
-11.5962
-12.4473
-12.9849
-13.6764
-14.3172
-16.1851
-15.962
-17.5483
-17.2556
-19.7549
-19.7986
-18.7268
-18.9658
-20.1939
-20.0083
-19.3663
-19.3417
-20.0048
-20.0885
-20.1299
-20.6582
-20.5181
-20.3385
-20.5563
-20.92
-20.7971
-21.0955
-21.0313
-20.9958
-20.972
-21.0147
-21.0535
-10.2833
-8.01024
-8.60266
-9.36348