/*--------------------------------*- C++ -*----------------------------------*\
  =========                 |
  \\      /  F ield         | OpenFOAM: The Open Source CFD Toolbox
   \\    /   O peration     | Website:  https://openfoam.org
    \\  /    A nd           | Version:  8
     \\/     M anipulation  |
\*---------------------------------------------------------------------------*/
FoamFile
{
    version     2.0;
    format      ascii;
    class       volVectorField;
    location    "18000";
    object      U;
}
// * * * * * * * * * * * * * * * * * * * * * * * * * * * * * * * * * * * * * //

dimensions      [0 1 -1 0 0 0 0];

internalField   nonuniform List<vector> 
4109
(
(10.1198 0.000520016 0)
(10.1223 0.000554825 3.80154e-21)
(10.124 0.00250639 0)
(10.1218 -0.000210482 -8.19712e-21)
(10.1242 0.00150683 3.94221e-22)
(10.1269 0.00237522 6.58409e-23)
(10.1278 0.00251612 -2.42448e-22)
(10.1334 0.00401897 0)
(10.1288 0.00239059 0)
(10.123 0.000391514 -2.8187e-21)
(10.125 0.00129467 3.4251e-21)
(10.1338 0.00314679 1.5136e-21)
(10.1364 0.00797737 2.23588e-21)
(10.1368 0.00429741 -1.00392e-22)
(10.1346 0.00331446 2.34237e-21)
(10.13 0.00222565 -8.78734e-22)
(10.1243 0.000620757 5.41827e-22)
(10.1267 0.00160591 6.36898e-23)
(10.1356 0.00323652 0)
(10.1404 0.00369852 -3.19273e-21)
(10.159 0.0081673 1.83782e-21)
(10.1427 0.00842387 -5.04318e-21)
(10.1466 0.00601194 -5.56914e-22)
(10.1312 0.00229556 -2.20061e-21)
(10.1285 0.00175796 8.96524e-21)
(10.1256 0.000841952 3.03412e-21)
(10.1329 -0.00212118 0)
(10.1362 -0.00228473 8.95638e-22)
(10.1404 -0.00217463 -6.43531e-23)
(10.136 0.00326147 0)
(10.1419 0.00324073 0)
(10.1465 0.00465068 3.87456e-21)
(10.221 -2.50053e-05 -1.01468e-21)
(10.1507 0.00705242 -7.08859e-21)
(10.1489 0.00602236 0)
(10.132 0.00233863 -1.58309e-22)
(10.1279 0.00153969 -8.90514e-21)
(10.1266 0.000752541 -4.94828e-21)
(10.1328 -0.00217082 -1.43031e-21)
(10.1249 -0.00161759 0)
(10.1421 -0.0030418 -1.31629e-22)
(10.1392 -0.00333594 4.87779e-22)
(10.1418 -0.00893351 -1.53152e-22)
(10.1365 0.00334556 -2.22649e-21)
(10.1421 0.0032406 0)
(9.48073 0.0260945 7.08701e-22)
(10.135 -0.000372746 3.79833e-22)
(10.1489 0.00467063 -1.38836e-22)
(10.1496 0.00403351 6.71142e-22)
(10.2167 -0.00105437 4.62021e-21)
(10.1535 0.00533882 4.24505e-21)
(10.1308 0.00203302 -1.30061e-22)
(10.1292 0.00185217 -8.64649e-21)
(10.1281 0.0010251 1.94543e-21)
(10.1329 -0.00250427 -9.36217e-22)
(10.1266 -0.00186494 0)
(10.119 -0.000357835 0)
(10.1416 -0.00527457 1.35752e-22)
(10.143 -0.00417531 1.51007e-22)
(10.1389 -0.00347858 0)
(10.2401 -0.00276662 -1.44122e-22)
(8.88599 0.0142839 0)
(10.1362 0.00330651 -7.5986e-21)
(10.1427 0.00324346 0)
(10.1487 0.0044007 5.96463e-22)
(10.2461 -0.000858574 -3.8621e-22)
(9.74636 0.028093 1.58143e-20)
(10.15 0.00375854 0)
(10.1508 0.00631918 -9.50245e-22)
(10.2301 -0.000417357 -5.81419e-22)
(10.1298 0.0012767 2.61001e-21)
(10.1309 0.00226351 5.76713e-21)
(10.1355 0.0038799 0)
(10.1319 0.00140909 1.18032e-20)
(10.1331 0.00226756 -1.76132e-20)
(10.1339 -0.00284882 9.44245e-22)
(10.1284 -0.00195631 0)
(10.1266 -0.00176471 0)
(10.1205 -0.00046728 0)
(10.2207 0.00675957 1.69112e-22)
(10.1468 -0.00464906 7.8197e-22)
(10.1416 -0.00486512 -7.24454e-22)
(10.1451 -0.00361137 8.63998e-23)
(10.1395 -0.0038994 0)
(10.3543 0.0186122 1.21453e-21)
(10.258 8.35333e-06 0)
(9.37364 -0.0429347 0)
(9.21596 0.0310594 -3.08509e-20)
(8.84228 0.0202472 -1.04673e-21)
(10.1348 0.00273582 2.97187e-21)
(10.1371 0.00329312 7.60169e-21)
(10.1432 0.00334074 0)
(10.1492 0.00450059 -3.12597e-22)
(10.1506 0.00351465 -1.94616e-22)
(10.2875 -0.00495687 0)
(9.99271 0.0122721 0)
(10.1483 0.00594643 0)
(10.2206 0.000547629 3.07542e-22)
(10.1372 0.00394623 6.21146e-22)
(10.1343 0.00322145 -1.16158e-20)
(10.1318 0.00249027 1.32263e-20)
(10.1365 0.0038427 8.36576e-21)
(10.1383 0.00452539 5.3287e-21)
(10.1347 0.00274237 6.20979e-21)
(10.1342 0.00122742 2.42415e-21)
(10.1347 -0.00333373 3.94154e-22)
(10.1305 -0.00263747 3.49218e-22)
(10.1263 -0.00154502 0)
(10.1212 -0.000625898 2.82413e-21)
(10.2091 0.00182165 1.51343e-22)
(10.3295 0.00916242 0)
(10.1451 -0.00537328 -3.1638e-22)
(10.1455 -0.0042897 -3.09535e-23)
(10.1454 -0.00403437 0)
(10.1399 -0.00421119 0)
(9.01874 -0.0380159 -1.43675e-20)
(10.1706 -0.0132117 -1.08379e-21)
(9.90986 -0.0362083 1.72517e-20)
(9.56752 0.0395134 -7.20193e-21)
(9.04843 0.011444 1.1e-20)
(8.75678 -0.00319193 8.60854e-21)
(10.2989 0.00205925 1.38131e-22)
(10.1362 0.00331149 -1.3573e-20)
(10.1394 0.00391131 -2.3482e-21)
(10.1441 0.00368437 -7.50458e-22)
(10.1495 0.00479665 0)
(10.1514 0.00387452 6.21729e-22)
(10.1472 0.00611443 -1.98257e-21)
(10.0767 0.00439791 3.37576e-21)
(10.3091 -0.00162233 0)
(10.2078 0.000912707 2.33082e-22)
(10.1404 0.00521826 6.8823e-21)
(10.1373 0.00405976 -4.32269e-21)
(10.1387 0.00472973 -8.18206e-21)
(10.1409 0.00582868 5.06592e-22)
(10.1372 0.0015585 0)
(10.1375 0.00379775 -4.9235e-21)
(10.1355 -0.00386708 -7.71355e-22)
(10.1307 -0.00281839 0)
(10.1268 -0.00171626 1.0658e-21)
(10.1225 -0.00076107 -2.82385e-21)
(10.2107 -0.00126787 -2.22218e-23)
(10.3261 -0.00306425 0)
(10.1429 -0.00663656 0)
(10.1466 -0.00444268 -2.96696e-22)
(10.1457 -0.00421214 1.4846e-22)
(10.1404 -0.00470159 0)
(9.13902 -0.034634 -8.22444e-21)
(9.85907 -0.0391221 5.3547e-22)
(9.08638 0.00958471 0)
(9.64727 0.0186205 -3.78416e-21)
(8.7604 0.022533 0)
(10.2683 -0.0013036 -1.28975e-22)
(10.1399 0.00438039 1.08193e-20)
(10.1395 0.00391636 2.34802e-21)
(10.145 0.00418089 7.13533e-22)
(10.1502 0.00562306 2.30388e-21)
(10.1514 0.00440721 1.08139e-21)
(10.1468 0.00696509 1.21349e-21)
(10.2021 0.00308272 -3.54713e-23)
(10.1214 0.00211362 -3.71921e-24)
(10.3213 -0.00265534 -2.32927e-22)
(10.1441 0.00619574 1.93098e-21)
(10.1402 0.00452011 0)
(10.1416 0.00626952 -3.1453e-22)
(10.1449 0.00726016 -1.66614e-21)
(10.1426 0.00640109 -2.083e-22)
(10.141 0.00538598 0)
(10.1408 0.00177682 0)
(10.1365 -0.00457615 2.96321e-22)
(10.132 -0.00341934 1.15417e-22)
(10.1281 -0.0020901 -2.30069e-21)
(10.1232 -0.00065023 -4.76555e-22)
(10.2068 -0.00458739 -1.76183e-23)
(10.3265 -0.00414217 0)
(10.1409 -0.00768103 6.04147e-22)
(10.1483 -0.00456026 -1.45612e-22)
(10.1457 -0.0048966 -5.88027e-22)
(10.1414 -0.00561874 -3.61133e-22)
(9.77438 -0.0296451 -5.5891e-22)
(8.88279 -0.0128443 0)
(9.70551 0.0164659 4.88423e-24)
(9.09611 0.00600605 4.68559e-22)
(8.7618 0.0207096 1.06556e-22)
(10.286 0.00324669 1.74615e-22)
(10.1456 0.00443707 -2.48474e-23)
(10.1462 0.00485651 2.48392e-23)
(10.1519 0.00621643 -1.19668e-21)
(10.1479 0.00758414 -1.94595e-21)
(10.1549 0.00410082 -8.60716e-22)
(10.1906 0.00623455 1.03674e-21)
(10.1074 0.00497599 -2.30202e-22)
(10.3172 0.000769452 1.33309e-22)
(10.1469 0.00535821 -9.29e-22)
(10.1477 0.00636411 4.87357e-22)
(10.146 0.00829235 -4.89951e-22)
(10.1487 0.00754929 -6.7174e-22)
(10.1477 0.00932281 4.86035e-22)
(10.146 0.00770374 2.43894e-22)
(10.1421 0.00501501 1.84652e-21)
(10.145 0.000839221 0)
(10.1378 -0.00529821 -6.31922e-22)
(10.1332 -0.00388659 3.06442e-22)
(10.1295 -0.0025142 1.97372e-21)
(10.1248 -0.000894289 3.73111e-22)
(10.1929 -0.00629344 -3.40256e-22)
(10.3171 -0.00338875 -5.82613e-22)
(10.1398 -0.00787051 3.69904e-22)
(10.1495 -0.00534639 1.65916e-23)
(10.1463 -0.00650696 8.60781e-22)
(10.1428 -0.00687188 0)
(9.7613 -0.0191666 -1.30482e-21)
(8.86912 -0.006387 6.30725e-22)
(9.07552 -0.00157041 0)
(9.68096 0.0117775 5.74773e-23)
(8.75445 0.0197072 -7.33356e-22)
(10.313 0.0116542 1.8642e-22)
(10.1528 0.00532417 0)
(10.1531 0.0056667 -9.09657e-22)
(10.1566 0.00420134 -2.9989e-21)
(10.1737 0.0130448 2.18459e-21)
(10.1067 0.0038762 2.75344e-24)
(10.3164 0.00248573 -4.78235e-22)
(10.1533 0.00704376 1.08628e-21)
(10.1536 0.00847664 2.02619e-21)
(10.1501 0.00887994 2.00938e-21)
(10.1543 0.0101994 -1.38635e-21)
(10.152 0.0101484 -1.02261e-21)
(10.1498 0.0104218 0)
(10.1473 0.00743683 -2.0754e-21)
(10.146 0.00574276 -2.12166e-21)
(10.1494 0.000839986 0)
(10.1392 -0.00592421 -2.90151e-21)
(10.1346 -0.00423419 7.5988e-21)
(10.1312 -0.00288175 3.37605e-21)
(10.1263 -0.000970066 -6.36746e-22)
(10.1769 -0.00777506 -2.23728e-22)
(10.3019 -0.00406092 1.64792e-22)
(10.1509 -0.00737665 -8.13281e-22)
(10.1405 -0.00801558 1.06342e-21)
(10.1407 -0.00631333 0)
(10.1483 -0.0088914 0)
(10.1446 -0.00788971 0)
(9.82311 -0.0166477 2.84605e-22)
(8.87941 -0.00898417 4.80338e-22)
(9.68286 0.00519047 5.41366e-23)
(9.07975 -0.00895817 6.50008e-23)
(8.76071 0.0212342 -6.44725e-23)
(10.3285 0.0174035 -4.80649e-22)
(10.1584 0.00307825 0)
(10.1566 0.00473241 4.73038e-22)
(10.1652 0.0165016 7.37579e-22)
(10.1063 0.00380898 -1.11364e-21)
(10.3181 0.00804844 5.7212e-22)
(10.1571 0.00685018 -3.28724e-22)
(10.1584 0.00753105 -2.71825e-22)
(10.1553 0.0119705 -3.84495e-22)
(10.1598 0.010095 0)
(10.1567 0.0139869 0)
(10.1542 0.0113785 -3.1607e-22)
(10.1523 0.0113613 2.68225e-21)
(10.1505 0.00816159 -1.11001e-20)
(10.1503 0.00585837 0)
(10.1538 0.000958099 0)
(10.1372 -0.00503481 4.09523e-21)
(10.1344 -0.00405528 -5.55473e-21)
(10.1283 -0.00111049 2.36712e-21)
(10.1395 -0.00567196 4.09939e-21)
(10.1526 -0.0104444 1.88053e-21)
(10.279 -0.00504733 -3.34819e-21)
(10.1513 -0.00930113 -3.95862e-23)
(10.1429 -0.00689977 0)
(10.1464 -0.00854562 0)
(10.1508 -0.0100444 -5.7025e-22)
(8.88507 -0.00588901 2.92959e-22)
(9.86047 -0.0142524 5.09432e-22)
(9.08964 -0.0249304 8.00897e-22)
(9.6873 -0.00846996 -7.69071e-22)
(8.76627 0.0185058 0)
(10.3381 0.027247 1.06695e-21)
(10.0158 -0.0174771 1.28639e-19)
(10.1675 0.0158549 0)
(10.1636 0.00996022 -2.24445e-22)
(10.1129 0.00559782 -1.49655e-20)
(10.3296 0.00657662 -4.23859e-21)
(10.1529 0.012999 1.44334e-21)
(10.1558 0.011451 -4.38135e-22)
(10.1611 0.012049 2.80756e-21)
(10.154 0.0166684 4.33365e-22)
(10.1632 0.0145054 -8.33793e-23)
(10.1585 0.0158283 -1.09683e-22)
(10.1568 0.0125629 0)
(10.1552 0.0122744 -6.01019e-21)
(10.1543 0.00894535 2.24538e-20)
(10.1549 0.00632947 0)
(10.1556 0.00431112 6.96593e-21)
(10.1572 -0.000650291 0)
(10.129 -0.000615705 0)
(10.1351 -0.00352126 2.4025e-21)
(10.132 -0.00246945 -3.65112e-21)
(10.1405 -0.00555847 2.06934e-22)
(10.1444 -0.00711116 1.59648e-21)
(10.1386 -0.0145249 0)
(10.2596 -0.00888374 1.46528e-21)
(10.1558 -0.0112634 1.24299e-21)
(10.1481 -0.00901797 6.00194e-22)
(10.1532 -0.0104022 0)
(9.88878 -0.00620452 1.22867e-21)
(8.86757 -0.000143261 -6.84825e-22)
(9.10584 -0.0298233 4.09423e-20)
(9.74106 -0.0150065 -2.81298e-20)
(8.78121 0.0160071 3.21162e-20)
(10.3336 0.029973 -9.97766e-22)
(10.0116 -0.00270928 -2.13042e-19)
(10.0142 -0.0198767 5.56047e-20)
(10.0108 -0.0138446 -6.25176e-20)
(10.022 -0.0211839 -8.28292e-20)
(10.0172 -0.00651324 1.88889e-19)
(10.028 -0.0266719 7.34141e-20)
(9.97294 0.0171364 2.76893e-20)
(10.3405 -0.01527 1.93984e-20)
(10.2798 -0.0294901 -1.8242e-20)
(10.1918 -0.000130435 -1.46978e-21)
(10.2033 0.001792 -6.07002e-21)
(10.158 0.0114164 -2.76843e-22)
(10.1574 0.0177935 0)
(10.1617 0.0209174 -1.63726e-21)
(10.1652 0.0160296 0)
(10.161 0.0176585 0)
(10.1612 0.00788472 4.34508e-20)
(10.1599 0.0137815 1.09206e-21)
(10.1588 0.0130603 1.87483e-20)
(10.1589 0.00966093 -1.89054e-20)
(10.1589 0.00369046 -6.73974e-21)
(10.1583 -0.0014129 0)
(10.1604 0.000788584 0)
(10.1565 -0.00255329 1.25644e-20)
(10.1319 -0.00168234 -5.35799e-22)
(10.1355 -0.00321047 -7.5167e-21)
(10.1426 -0.00595222 -4.80812e-21)
(10.1462 -0.0074557 -5.1715e-21)
(10.1497 -0.00936024 -7.51799e-22)
(10.1389 -0.0198081 0)
(10.2597 -0.0109696 -2.96957e-21)
(10.1589 -0.012231 -1.11892e-21)
(10.1552 -0.0102535 -1.64181e-23)
(9.89172 0.000590871 7.6663e-21)
(8.76559 0.00648339 5.64848e-22)
(8.97733 0.0202258 2.60593e-20)
(10.3267 0.0113256 8.99159e-22)
(10.0008 -0.00197605 -5.61876e-20)
(10.0042 -0.00162244 5.62386e-20)
(10.007 -0.00903346 0)
(10.0193 -0.0246192 -2.27605e-20)
(10.0112 -0.0246263 8.56193e-20)
(10.0069 -0.0176192 7.23041e-20)
(10.1498 -0.00528976 0)
(10.1551 -0.0109819 7.01775e-21)
(10.1567 -0.0250657 5.61947e-21)
(10.0258 -0.00782181 -2.87992e-21)
(10.0314 -0.0193448 -1.91033e-20)
(10.0242 -0.0120517 4.8066e-20)
(10.0341 -0.0269461 -6.53994e-21)
(10.0258 -0.0304485 2.77705e-20)
(9.51769 0.0553124 -6.07979e-20)
(10.3523 -0.033355 -4.64039e-21)
(10.3281 0.00757101 2.73313e-20)
(10.273 -0.00107431 -1.00004e-20)
(10.1691 0.0134008 -1.60614e-22)
(10.1652 0.0072493 1.73168e-21)
(10.1565 0.022522 -1.28519e-20)
(10.1693 0.0209631 0)
(10.1676 0.0183156 0)
(10.164 0.0197429 -1.07867e-21)
(10.1639 0.0102035 0)
(10.1635 0.015 0)
(10.1629 0.0135806 -6.40336e-21)
(10.1657 0.00202545 0)
(10.1646 0.00461053 -3.15018e-20)
(10.1608 -0.00498917 -7.5905e-20)
(10.1647 -0.00158342 5.13392e-20)
(10.1657 -0.0165318 0)
(10.1735 -0.0339559 1.58617e-20)
(10.1346 -0.00158129 7.96723e-21)
(10.1383 -0.00393373 -4.09906e-22)
(10.1454 -0.00665156 -2.00023e-20)
(10.148 -0.00789028 1.12929e-20)
(10.1514 -0.00974607 2.12607e-22)
(10.1569 -0.0104503 -1.62676e-22)
(10.1441 -0.0206608 8.39404e-22)
(10.2491 -0.0144717 1.0505e-21)
(10.161 -0.0117259 -4.70845e-22)
(9.93291 -0.0197252 -1.19556e-20)
(8.57836 0.00817554 1.84043e-20)
(10.0004 -0.00286388 -1.16443e-19)
(10.003 -0.00950302 4.9552e-20)
(10.0163 -0.0308122 -2.81083e-20)
(10.0092 -0.0286107 1.95109e-21)
(10.0052 -0.0203313 -1.38026e-19)
(10.1443 -0.0173773 -1.26352e-20)
(10.1378 -0.00784252 1.0723e-20)
(10.1448 -0.0341531 0)
(10.184 -0.056242 -3.00959e-20)
(10.1624 -0.0451719 -1.65397e-20)
(10.0401 -0.0164032 1.6882e-22)
(10.0392 -0.0109795 -2.70732e-20)
(10.0414 -0.0308641 -1.92615e-22)
(10.0335 -0.0353872 -6.32012e-21)
(10.0237 -0.0376758 -2.9212e-20)
(8.65195 0.0442592 -4.51026e-20)
(9.83376 0.103512 1.30207e-20)
(10.3641 0.0415988 -1.31257e-20)
(10.3117 0.0226645 1.22248e-21)
(10.1779 0.016808 4.54627e-21)
(10.1679 0.010014 2.7985e-21)
(10.1714 0.00907433 9.2278e-21)
(10.1591 0.0225874 -2.4776e-21)
(10.17 0.0231615 2.72946e-21)
(10.1702 0.0206234 0)
(10.1676 0.022336 -8.91671e-21)
(10.1674 0.0134665 -1.03084e-20)
(10.1678 0.0161209 0)
(10.1736 0.00194253 -2.22804e-20)
(10.1722 0.00572759 -1.11213e-20)
(10.1733 -0.00329955 4.9085e-20)
(10.1709 -0.00946095 -1.83109e-20)
(10.1811 -0.0231526 -1.12583e-20)
(10.1951 -0.0411638 4.7347e-20)
(10.1379 -0.00203336 -4.81025e-21)
(10.1416 -0.00475107 8.92545e-21)
(10.1632 -0.0128342 2.21923e-21)
(10.1506 -0.00864107 6.59776e-21)
(10.1495 -0.0085085 0)
(10.1531 -0.010307 1.78033e-21)
(10.1584 -0.0107139 9.90735e-23)
(10.1539 -0.0103361 0)
(10.1536 -0.0178321 -1.82276e-21)
(10.1495 -0.0180281 -1.54239e-21)
(10.2878 -0.00594069 1.34319e-21)
(10.0371 -0.0552417 3.25388e-20)
(10.0008 0.00226678 -1.4703e-20)
(10.0003 -0.00385947 0)
(10.0021 -0.0120288 3.14974e-20)
(10.0142 -0.0363935 -7.01697e-21)
(10.0068 -0.0331616 0)
(10.0036 -0.0233641 1.04924e-20)
(10.2207 -0.069112 -5.38001e-20)
(10.1206 -0.01053 -9.70349e-23)
(10.1008 -0.0129384 0)
(10.1302 -0.024094 -4.83934e-21)
(10.1345 -0.0432711 -1.22952e-21)
(10.0575 -0.0100884 0)
(10.0784 -0.0094585 0)
(10.1675 -0.070143 1.45752e-20)
(10.148 -0.0552151 -1.35392e-22)
(10.051 -0.0260783 1.04512e-19)
(10.0432 -0.0389015 4.99351e-20)
(10.0332 -0.0448677 1.2755e-20)
(10.0211 -0.0446466 0)
(8.45731 -0.00199469 3.55669e-20)
(9.41742 0.108927 0)
(10.2835 0.057975 9.74098e-22)
(10.3183 0.0251731 -1.2357e-21)
(10.1959 0.018092 6.12732e-21)
(10.1722 0.0124953 1.19003e-20)
(10.177 0.0102295 0)
(10.1604 0.0240928 3.77247e-21)
(10.1718 0.0254208 -7.9985e-22)
(10.1732 0.0234653 -3.46196e-21)
(10.1721 0.025111 -1.67904e-21)
(10.1729 0.0168218 2.0087e-22)
(10.1839 0.00153175 -1.2887e-20)
(10.1807 0.00643263 1.4455e-20)
(10.1855 -0.00516068 1.3403e-20)
(10.1849 -0.0134601 -1.21558e-20)
(10.201 -0.0269628 -4.74061e-20)
(10.228 -0.0455913 3.3748e-24)
(10.1416 -0.00257227 -2.67514e-21)
(10.151 -0.00717103 -2.94833e-20)
(10.1464 -0.00598581 1.8508e-20)
(10.1726 -0.01831 -2.0937e-21)
(10.1648 -0.0129139 -6.34989e-22)
(10.1547 -0.0110892 -1.6891e-21)
(10.1566 -0.0118309 0)
(10.1598 -0.0112435 1.3007e-21)
(10.1569 -0.0120215 8.49934e-21)
(10.1589 -0.0128552 0)
(9.66488 -0.0878236 -8.18663e-20)
(9.3843 -0.0906158 1.46976e-20)
(10.1402 -0.0081791 0)
(10.3265 0.00275229 5.27683e-21)
(10.0004 0.00279582 1.43911e-19)
(10.0022 0.00844801 -1.37006e-19)
(10.0046 0.00103962 0)
(10.0003 -0.00456839 -1.95989e-20)
(10.0014 -0.0137748 7.19453e-20)
(10.0115 -0.0425309 5.93764e-21)
(10.0038 -0.0352124 0)
(10.0013 -0.0245282 -1.65674e-19)
(10.2051 -0.0913281 5.37743e-20)
(10.2663 -0.0674209 2.26355e-20)
(10.1189 -0.0326688 -3.54295e-21)
(10.1015 -0.0267223 0)
(10.1186 -0.0514744 4.91193e-21)
(10.0819 -0.0232857 0)
(10.065 -0.0273025 -8.73474e-20)
(10.1471 -0.0803709 1.53469e-20)
(10.1315 -0.0602306 3.83168e-21)
(10.0554 -0.0402304 -2.01085e-20)
(10.0446 -0.0518594 -1.17355e-20)
(10.0301 -0.0533114 4.04704e-20)
(10.0165 -0.0520287 -3.83673e-20)
(8.1608 -0.0232059 5.03892e-21)
(9.11398 0.0768957 3.35605e-21)
(9.05082 -0.0678005 6.74066e-21)
(10.2356 0.038249 -2.24837e-21)
(10.3408 0.027278 2.04074e-21)
(10.2081 0.0225447 -2.3368e-21)
(10.1787 0.0164827 0)
(10.1848 0.0145589 -1.92892e-20)
(10.1621 0.0273234 -4.46658e-21)
(10.1735 0.0282446 7.47179e-21)
(10.1779 0.0266338 1.48265e-21)
(10.1772 0.0273274 1.09666e-20)
(10.1908 0.0106012 1.92828e-20)
(10.1963 0.00463891 0)
(10.2005 -0.00371245 0)
(10.2024 -0.0143332 0)
(10.2291 -0.0241527 0)
(10.2668 -0.0398476 -4.67451e-20)
(10.3058 -0.0634207 -7.3161e-20)
(10.1458 -0.00304204 2.675e-21)
(10.1519 -0.00551634 8.24897e-21)
(10.1666 -0.0137624 2.29559e-21)
(10.1658 -0.0139437 1.74782e-22)
(10.1612 -0.0122734 -1.5623e-21)
(10.1627 -0.0135227 -1.82134e-21)
(10.165 -0.014907 0)
(10.1587 -0.0117133 0)
(10.1617 -0.0137998 0)
(10.1705 -0.00448115 0)
(10.3663 -0.0137618 4.00122e-20)
(10.2982 -0.0295306 -3.04348e-20)
(10.0006 0.00484459 3.59088e-20)
(10.0023 0.0108675 -2.80466e-20)
(10.0049 0.0140296 -6.97946e-20)
(10.0137 0.00793707 0)
(10.0073 0.0109485 0)
(9.99992 -0.00489732 5.48436e-21)
(10.0009 -0.0153983 4.30887e-20)
(10.0078 -0.045959 -1.27227e-21)
(10.0001 -0.0396326 -2.96747e-20)
(9.9994 -0.0301312 2.68449e-19)
(10.1824 -0.107193 1.46153e-22)
(10.2518 -0.0954574 4.56026e-20)
(10.3319 -0.104505 -7.18576e-20)
(10.0714 -0.0447504 -6.55348e-20)
(10.1023 -0.0508468 2.07995e-20)
(10.0892 -0.0406314 2.99994e-20)
(10.125 -0.0862476 0)
(10.1146 -0.0631408 -1.9888e-21)
(10.0586 -0.0588288 -1.62017e-20)
(10.0414 -0.0623463 -4.45285e-20)
(10.0231 -0.0623732 2.25441e-20)
(10.0111 -0.0568724 -1.42437e-20)
(10.3285 -0.0677996 0)
(8.03797 -0.0145044 -4.72548e-21)
(8.96722 0.0593595 2.24365e-21)
(8.85641 -0.0373047 -5.12678e-21)
(10.2084 0.0304272 7.02206e-22)
(10.3521 0.0290941 -6.63987e-22)
(10.2155 0.0307922 0)
(10.1841 0.0284731 0)
(10.1922 0.0277746 1.98113e-20)
(10.1773 0.0321421 0)
(10.1638 0.0352925 -7.27432e-23)
(10.1836 0.0299162 -1.43943e-21)
(10.201 0.0245158 -1.97997e-20)
(10.2101 0.0182407 0)
(10.2187 0.00815675 0)
(10.2256 -0.00593311 0)
(10.2611 -0.0151303 0)
(10.2944 -0.0339385 3.65598e-20)
(10.3373 -0.0485491 2.13701e-19)
(10.3657 -0.0676011 1.72004e-20)
(10.1492 -0.00212415 0)
(10.1557 -0.00581051 -8.35046e-21)
(10.1675 -0.013182 0)
(10.1667 -0.014683 5.86664e-21)
(10.1676 -0.0170141 -1.53507e-20)
(10.1681 -0.0192313 4.69698e-21)
(10.1679 -0.0166748 -1.60855e-20)
(10.1627 -0.0123164 2.59772e-21)
(10.1643 -0.013549 0)
(10.167 -0.0177188 2.37486e-20)
(10.1792 -0.0113396 0)
(10.2687 0.0176563 1.66369e-20)
(10.0006 0.00602926 -6.63625e-20)
(10.024 0.00792237 2.01962e-20)
(10.0034 0.0164471 0)
(10.0063 0.020435 -1.2e-21)
(10.0114 0.0147328 5.6847e-20)
(9.99982 -0.00454566 0)
(9.99905 -0.0147285 -4.79588e-20)
(10.0024 -0.0501865 3.2992e-20)
(9.99526 -0.0388616 0)
(9.99592 -0.0297382 0)
(9.99821 -0.021152 -1.81977e-21)
(10.1556 -0.117108 -2.40635e-21)
(10.3757 -0.143299 1.00536e-19)
(10.2208 -0.121577 -2.29487e-21)
(10.2941 -0.132209 -7.3686e-20)
(10.105 -0.0877132 5.44102e-20)
(10.0758 -0.0604855 0)
(10.0949 -0.066048 -2.46021e-20)
(10.0558 -0.0714857 0)
(10.0311 -0.0740579 4.99532e-21)
(10.0152 -0.0694492 4.30475e-20)
(10.0038 -0.0620512 -1.71757e-20)
(10.2778 -0.0441633 0)
(7.97167 -0.0143207 2.79925e-21)
(8.87343 0.058322 -3.64012e-21)
(8.7724 -0.0338366 -7.44431e-22)
(10.1706 0.0247895 9.09858e-22)
(10.3546 0.0321507 1.32636e-21)
(10.2175 0.0455112 5.99107e-22)
(10.2025 0.0342586 2.15762e-20)
(10.1921 0.0326826 -1.04752e-20)
(10.1839 0.0375365 1.25043e-21)
(10.1676 0.048691 -1.34488e-21)
(10.2142 0.0323676 -2.85335e-20)
(10.2268 0.0271712 1.69526e-20)
(10.2517 0.00460005 0)
(10.2397 0.0185434 0)
(10.2847 -0.00719219 -1.30685e-20)
(10.3523 -0.00680548 7.77453e-20)
(10.3228 -0.0104904 0)
(10.3868 -0.0273243 -2.16581e-19)
(10.4095 -0.0981846 -1.38934e-19)
(10.1534 -0.0019906 4.58341e-21)
(10.1592 -0.00539328 -2.48178e-21)
(10.1663 -0.011933 1.79073e-20)
(10.1676 -0.0190279 4.06849e-21)
(10.1709 -0.0178558 1.33298e-20)
(10.1709 -0.0223894 -1.93834e-21)
(10.1721 -0.0177082 3.79808e-22)
(10.1683 -0.0143506 -2.19999e-21)
(10.1694 -0.0195291 8.63961e-21)
(10.1625 -0.0250431 0)
(10.243 -0.0113599 -2.50806e-22)
(10.0002 0.00576093 -4.06278e-20)
(10.0016 0.0153461 8.28482e-20)
(10.0388 0.00743845 -2.92979e-20)
(10.0282 0.0195756 -5.33458e-20)
(10.0054 0.0232414 3.26887e-20)
(10.0107 0.0237562 -2.45233e-20)
(10.0205 0.0216419 5.21283e-20)
(9.99812 -0.011516 0)
(9.99964 -0.00369922 0)
(9.99562 -0.049587 -1.67868e-20)
(9.99021 -0.0373692 -5.57624e-20)
(9.99263 -0.0285457 1.70854e-20)
(9.99557 -0.0198364 1.86164e-21)
(10.1294 -0.120859 -1.73412e-20)
(10.4297 -0.194635 -1.73257e-19)
(10.1871 -0.141312 -4.5789e-21)
(10.3358 -0.183463 2.64221e-20)
(10.2546 -0.170499 3.00089e-20)
(10.0896 -0.091775 -4.40334e-20)
(10.0717 -0.0773554 -1.30866e-20)
(10.106 -0.120145 2.43604e-20)
(10.0438 -0.0869672 -7.25978e-20)
(10.0215 -0.0847378 0)
(10.0054 -0.076239 -1.34153e-20)
(9.99427 -0.0625243 -3.59169e-21)
(10.3034 -0.0456938 5.30761e-22)
(7.93227 -0.0224722 0)
(8.78226 0.0615708 1.09848e-21)
(8.69504 -0.029974 0)
(10.1348 0.0194132 -1.38038e-21)
(10.3541 0.0365236 -6.07606e-22)
(10.2087 0.0612133 1.07286e-22)
(10.2077 0.0498862 0)
(10.1941 0.0439233 8.86885e-22)
(10.1761 0.0610194 1.56088e-20)
(10.2255 0.0439592 0)
(10.2399 0.0380294 3.35888e-20)
(10.2713 0.0133153 -4.37243e-21)
(10.256 0.0289809 -3.86661e-20)
(10.3098 0.00232171 -2.53076e-21)
(10.3587 0.030836 9.62085e-20)
(10.3963 0.0075461 -4.42928e-20)
(10.4345 -0.0478828 1.6172e-19)
(10.4674 -0.138502 3.97965e-20)
(10.157 -0.00187142 0)
(10.1639 -0.0051156 0)
(10.1708 -0.0110219 -2.43153e-20)
(10.1725 -0.0147175 6.48366e-22)
(10.1684 -0.0231218 -9.3761e-21)
(10.1722 -0.0205538 0)
(10.1739 -0.0264454 -2.40555e-21)
(10.1747 -0.0191557 -3.81591e-21)
(10.1736 -0.0203868 3.51946e-21)
(10.1691 -0.0270893 4.29805e-21)
(10.2608 -0.0136597 1.01291e-22)
(10.0001 0.00434243 3.33699e-20)
(10.0004 0.0131238 8.37299e-20)
(10.0018 0.0206621 -1.22442e-19)
(10.0037 0.0245461 -4.4402e-20)
(10.057 0.00733671 0)
(10.0413 0.0194804 3.41638e-20)
(10.0335 0.0301869 -4.12037e-20)
(10.0089 0.0290995 -1.43167e-20)
(10.0168 0.0302422 0)
(10.0272 0.0310994 -8.76708e-20)
(10.0774 0.00695246 -4.24846e-21)
(9.99704 -0.00801812 5.0169e-20)
(9.99954 -0.00228637 0)
(9.99985 0.00370279 0)
(9.98793 -0.0473232 -2.07494e-20)
(9.98541 -0.0315895 4.39625e-20)
(9.99237 -0.0154226 -5.40677e-20)
(9.98822 -0.0235149 0)
(10.1493 -0.155348 -2.7709e-22)
(10.3836 -0.243808 1.49856e-20)
(10.2114 -0.194256 5.89912e-21)
(10.2897 -0.220187 3.1049e-22)
(10.0817 -0.115746 3.31744e-20)
(10.0606 -0.0989323 5.99549e-20)
(10.1123 -0.160306 0)
(9.98325 -0.0602451 4.40721e-20)
(10.0332 -0.103703 -7.78749e-22)
(10.0094 -0.0952443 0)
(9.99234 -0.0781903 -1.65813e-20)
(10.2869 -0.0421608 -9.93451e-23)
(7.90013 -0.0266547 4.37588e-22)
(8.69856 0.0680714 -6.74661e-22)
(8.64884 -0.0269148 -1.28385e-21)
(10.2081 0.0708785 0)
(10.1219 0.00704243 1.06481e-22)
(10.3478 0.0396379 -1.67786e-22)
(10.2062 0.0673026 -2.32071e-20)
(10.1901 0.0704561 3.65409e-21)
(10.2487 0.0628228 -7.63178e-21)
(10.2332 0.0613113 2.83389e-20)
(10.2906 0.037377 -5.48207e-20)
(10.3239 0.0460174 -1.00519e-19)
(10.2711 0.0408182 7.1585e-20)
(10.3827 0.0484078 0)
(10.4462 0.00869012 9.69475e-20)
(10.496 -0.0760144 0)
(10.1591 -0.00160673 4.32178e-21)
(10.1714 -0.00411505 4.46475e-20)
(10.1755 -0.00927121 0)
(10.1774 -0.0143942 -3.76965e-22)
(10.1783 -0.0210447 -1.05021e-20)
(10.1698 -0.0293991 0)
(10.1746 -0.0226148 0)
(10.1776 -0.0295737 -3.52646e-22)
(10.1794 -0.0213331 1.01772e-20)
(10.1701 -0.0342288 1.09025e-21)
(10.2637 -0.0191962 -1.02259e-21)
(10.1563 0.000498517 -5.25844e-21)
(10.1517 0.00160354 0)
(9.99937 0.0130881 1.34771e-20)
(9.99925 0.0213932 0)
(10.0029 0.0287724 4.66405e-20)
(10.0068 0.0324832 1.43574e-20)
(10.0576 0.0203722 0)
(10.0441 0.0315115 5.733e-20)
(10.0346 0.036902 3.78341e-21)
(10.0144 0.0367298 0)
(10.0243 0.0380315 0)
(10.0758 0.021914 -4.53005e-22)
(10.0983 0.00594293 -4.09074e-21)
(10.1178 0.00349114 0)
(10.1334 0.000152937 4.65555e-20)
(10.1468 0.00504512 -4.61125e-20)
(9.99927 0.000643241 0)
(9.99572 -0.00261381 0)
(9.99966 0.00199735 0)
(9.99823 0.0115383 0)
(9.9716 -0.0514683 -2.15862e-20)
(9.98002 -0.0395296 5.48691e-20)
(9.98184 -0.024956 0)
(9.98895 -0.0092714 5.35139e-20)
(10.1641 -0.213939 2.06672e-20)
(10.3307 -0.287306 2.31968e-20)
(10.2387 -0.25195 -2.11999e-20)
(10.0514 -0.123416 2.83486e-21)
(10.0774 -0.139386 -6.30505e-22)
(10.0969 -0.191834 1.04666e-20)
(10.1189 -0.229942 -3.66793e-20)
(9.96074 -0.0655846 0)
(9.97673 -0.0760372 -2.64698e-21)
(10.0186 -0.118606 0)
(9.99122 -0.0998424 0)
(10.3062 -0.0435593 0)
(8.60748 0.0737833 -1.72396e-22)
(7.85604 -0.0309217 -2.26453e-22)
(8.71539 -0.0394522 -1.01777e-20)
(10.3331 0.0514117 0)
(10.1662 -0.00309565 -4.15825e-21)
(10.2187 0.0956974 -3.99134e-21)
(10.2414 0.0727552 -1.39939e-20)
(10.3203 0.0856158 0)
(10.2789 0.0802045 0)
(10.3615 0.0806306 -3.89837e-20)
(10.4432 0.0643151 4.56702e-21)
(10.5129 -0.00724361 2.47412e-20)
(10.1693 0.000870199 -5.33572e-20)
(10.1803 -0.00708358 0)
(10.183 -0.0128369 1.44444e-20)
(10.1842 -0.0208485 3.7799e-22)
(10.1848 -0.0230849 1.82835e-21)
(10.1726 -0.0367516 -1.15359e-21)
(10.1786 -0.0255389 1.52544e-21)
(10.1826 -0.0324652 0)
(10.2663 -0.0251336 2.92902e-22)
(10.172 -0.0416357 -7.2074e-22)
(10.1568 0.0133448 2.23011e-20)
(10.1669 0.00522853 8.72707e-21)
(10.1612 0.00984565 -2.84196e-21)
(9.99798 0.0212394 1.64187e-20)
(9.99972 0.0292945 -3.19319e-20)
(10.005 0.0372194 -1.61254e-20)
(10.0118 0.0417022 1.36781e-20)
(10.0586 0.0335563 0)
(10.0451 0.0409632 2.21307e-20)
(10.0334 0.0450264 -3.57913e-21)
(10.0219 0.0456667 1.12439e-21)
(10.0746 0.0364142 -1.72803e-20)
(10.0962 0.0270846 1.475e-20)
(10.0917 0.0378131 -7.6296e-21)
(10.1582 0.0227942 1.35606e-20)
(10.1155 0.0254715 -1.18338e-23)
(10.1475 0.0238615 -1.15722e-21)
(10.1332 0.0238485 4.06926e-21)
(9.99665 0.0085234 0)
(9.99262 0.00362626 0)
(9.99564 0.0196121 6.10835e-20)
(9.98541 0.00243548 -1.07265e-19)
(9.96077 -0.0417359 -5.68203e-20)
(9.97242 -0.0311421 2.55085e-20)
(9.98089 -0.0125366 1.70537e-20)
(9.94677 -0.0509495 0)
(10.1844 -0.27624 0)
(10.2717 -0.324598 1.50458e-20)
(10.0367 -0.155622 -2.35316e-20)
(10.0557 -0.210088 3.15691e-20)
(10.0613 -0.168782 3.07764e-20)
(10.0653 -0.248085 -1.58366e-20)
(10.1285 -0.293541 6.14552e-21)
(9.96895 -0.0962885 -4.44823e-20)
(9.94791 -0.0813685 5.29448e-20)
(9.99176 -0.129636 -3.86116e-20)
(10.3892 -0.0544017 2.73575e-21)
(8.51381 0.103515 9.00803e-21)
(7.78544 -0.0326923 -4.7737e-20)
(8.72381 -0.0980922 -5.95311e-21)
(10.3602 0.0608977 1.68197e-20)
(10.2566 0.0168123 -1.83166e-20)
(10.2521 0.108545 4.19781e-20)
(10.2629 0.0819259 -2.31984e-20)
(10.3417 0.118037 1.84089e-19)
(10.4263 0.118271 3.11608e-19)
(10.5174 0.0634051 -2.35505e-19)
(10.1814 -0.00176069 0)
(10.1886 -0.00957985 -3.02925e-20)
(10.1911 -0.0191085 -1.08973e-22)
(10.1918 -0.0239258 -1.18445e-20)
(10.1893 -0.0342178 1.18718e-21)
(10.1782 -0.044674 3.86109e-22)
(10.1845 -0.0294256 5.85132e-22)
(10.2331 -0.0325628 -3.02864e-22)
(10.1693 -0.0499275 0)
(10.1672 0.0145995 0)
(10.1816 0.0047134 0)
(9.99304 0.0283348 1.01955e-19)
(9.99684 0.0297948 -1.68165e-20)
(10.001 0.0385775 4.98596e-20)
(10.0089 0.0477073 0)
(10.0193 0.052644 -4.35544e-20)
(10.059 0.0454557 -6.47695e-21)
(10.0451 0.051034 -1.45659e-21)
(10.0316 0.0546908 1.48472e-20)
(10.0744 0.04847 1.102e-20)
(10.0909 0.0553906 1.72305e-20)
(10.1066 0.0473746 -6.09927e-21)
(10.1684 0.0239692 5.94956e-21)
(10.1638 0.0307933 1.44324e-20)
(10.1218 0.044311 1.16908e-21)
(10.1538 0.0350653 -2.50932e-21)
(10.1395 0.0399788 -1.30576e-20)
(9.99258 0.0164946 5.81418e-20)
(9.98735 0.0117318 7.4943e-20)
(9.98909 0.0248707 -2.2118e-19)
(9.97703 0.000853973 -1.7827e-20)
(9.93091 -0.0667621 1.64561e-20)
(9.95032 -0.0236328 -2.77484e-19)
(9.96442 -0.0122873 8.90454e-20)
(9.9341 -0.0260413 0)
(9.98672 0.0317072 4.4915e-20)
(10.2074 -0.353111 -3.24913e-21)
(9.99985 -0.17101 0)
(10.0114 -0.202577 6.7512e-20)
(10.0204 -0.249374 -3.91887e-20)
(10.0698 -0.303682 0)
(10.1383 -0.371494 -4.23667e-21)
(9.94632 -0.162171 -9.44523e-20)
(9.95314 -0.129254 3.23184e-20)
(9.92724 -0.119699 -1.34333e-19)
(10.4167 -0.0956156 7.51006e-21)
(8.32329 0.223346 3.30644e-21)
(7.7836 -0.0421684 2.99279e-19)
(8.31891 -0.228068 -1.70424e-19)
(10.3275 0.149788 -1.76757e-21)
(10.2874 0.143087 -1.60331e-19)
(10.3538 0.148161 8.15024e-20)
(10.3953 0.167506 -1.84403e-19)
(10.5062 0.136366 -7.75489e-21)
(10.1937 -0.00418874 1.59469e-20)
(10.1984 -0.0150157 -3.41102e-23)
(10.2007 -0.0227372 1.69357e-20)
(10.1986 -0.0345229 -1.12455e-21)
(10.185 -0.0540402 -7.51577e-22)
(10.1927 -0.0333155 1.8516e-21)
(10.2111 -0.051978 1.66463e-22)
(10.1762 -0.0604687 2.0024e-20)
(10.1818 0.0133094 0)
(10.1974 0.0037423 -1.82018e-20)
(9.99125 0.0370834 -3.71868e-20)
(9.9965 0.03913 -3.33138e-20)
(10.0037 0.0512511 0)
(10.0162 0.0614263 -2.77869e-20)
(10.0295 0.0631346 1.58673e-20)
(10.0593 0.0565633 6.22854e-21)
(10.0439 0.0635524 0)
(10.0759 0.0615504 -3.11124e-21)
(10.0945 0.0631575 -1.73661e-21)
(10.1133 0.0627313 4.44173e-21)
(10.1812 0.0243737 -1.03925e-20)
(10.1751 0.0349712 0)
(10.1314 0.0589189 -5.25544e-22)
(10.1642 0.0447283 -1.05509e-21)
(10.1492 0.052591 -7.1991e-21)
(9.9791 0.0114761 -3.24784e-20)
(9.98208 0.0238825 0)
(9.96 0.000528931 2.05622e-19)