/*--------------------------------*- C++ -*----------------------------------*\
  =========                 |
  \\      /  F ield         | OpenFOAM: The Open Source CFD Toolbox
   \\    /   O peration     | Website:  https://openfoam.org
    \\  /    A nd           | Version:  8
     \\/     M anipulation  |
\*---------------------------------------------------------------------------*/
FoamFile
{
    version     2.0;
    format      ascii;
    class       volScalarField;
    location    "13000";
    object      epsilon;
}
// * * * * * * * * * * * * * * * * * * * * * * * * * * * * * * * * * * * * * //

dimensions      [0 2 -3 0 0 0 0];

internalField   nonuniform List<scalar> 
4109
(
0.117506
0.131184
0.12081
0.129883
0.135522
0.131487
0.13676
0.120696
0.145275
0.145099
0.14318
0.147277
0.120098
0.134656
0.139654
0.150936
0.151599
0.149996
0.152001
0.141144
0.121866
0.130646
0.13148
0.158825
0.160152
0.16533
0.120009
0.133809
0.118581
0.16047
0.149186
0.143184
0.132437
0.13128
0.137933
0.163078
0.164098
0.176548
0.13724
0.119727
0.134471
0.13707
0.122389
0.166565
0.154523
0.55252
0.250009
0.148859
0.143826
0.132372
0.138991
0.170778
0.178449
0.192218
0.150505
0.137711
0.117478
0.135025
0.139347
0.147616
0.143938
0.67685
0.177315
0.163066
0.157185
0.212699
0.553012
0.151025
0.143476
0.143701
0.207829
0.184805
0.236317
0.22742
0.224585
0.155898
0.155596
0.143884
0.134915
0.144253
0.140646
0.143546
0.149308
0.152112
0.182895
0.248549
0.590437
0.800342
0.810648
0.188968
0.184678
0.169517
0.163121
0.157878
0.193881
0.422509
0.151296
0.143933
0.237085
0.220717
0.209838
0.242332
0.248356
0.245916
0.251896
0.165701
0.161282
0.155419
0.141092
0.15449
0.208239
0.147195
0.151785
0.154731
0.161319
0.818592
0.303674
0.400233
0.567053
0.895667
0.846841
0.252079
0.206331
0.194385
0.178849
0.172037
0.165669
0.157406
0.429745
0.162586
0.154745
0.241512
0.227104
0.260361
0.251883
0.27434
0.256568
0.172105
0.169828
0.169635
0.155147
0.161004
0.211029
0.15219
0.15755
0.162786
0.166814
0.798251
0.474605
0.916027
0.599381
0.925896
0.285153
0.214462
0.20367
0.186773
0.179151
0.17249
0.166066
0.159857
0.415408
0.154469
0.235695
0.221824
0.269644
0.248224
0.279166
0.283649
0.300085
0.182711
0.178212
0.176989
0.163898
0.169624
0.226719
0.159219
0.165602
0.168918
0.176766
0.556266
0.972605
0.580163
1.00948
0.984413
0.313858
0.197387
0.207055
0.188714
0.172229
0.180802
0.170738
0.473945
0.163198
0.219138
0.230588
0.263616
0.24429
0.278158
0.297222
0.296313
0.338056
0.190364
0.188165
0.189457
0.177774
0.171348
0.228534
0.165791
0.171663
0.177975
0.183811
0.602798
1.05465
1.07881
0.666624
1.09687
0.310157
0.198463
0.210152
0.184839
0.178471
0.496482
0.169887
0.221467
0.234392
0.257909
0.24768
0.273648
0.29623
0.311801
0.335234
0.375038
0.202439
0.196974
0.19661
0.1891
0.178949
0.241307
0.179824
0.172462
0.211962
0.185976
0.194915
0.59092
1.15069
0.698026
1.19335
1.19332
0.329612
0.200876
0.208848
0.190314
0.547529
0.171657
0.224067
0.234165
0.26209
0.250337
0.277485
0.289834
0.315064
0.338442
0.362229
0.422392
0.213111
0.205312
0.202636
0.222024
0.181141
0.245368
0.184168
0.225182
0.203814
0.196864
1.24216
0.61534
1.29078
0.766547
1.32888
0.338325
3.64985
0.202997
0.21522
0.577138
0.179055
0.223643
0.237527
0.26306
0.249462
0.279754
0.293522
0.308307
0.33749
0.364643
0.402126
0.412958
0.47906
0.210093
0.219832
0.203517
0.234341
0.236736
0.186845
0.255214
0.199698
0.216297
0.207085
0.639364
1.36602
1.41543
0.770335
1.44502
0.353878
4.40738
3.87582
4.60697
3.18424
3.9592
2.78974
0.751987
0.187953
0.232169
0.238453
0.254129
0.252443
0.267529
0.280579
0.29401
0.311392
0.42399
0.327688
0.361238
0.397176
0.478459
0.541667
0.510046
0.617859
0.231725
0.225023
0.247544
0.251646
0.227121
0.19941
0.271789
0.207346
0.219421
0.698852
1.52082
1.5033
0.357008
9.80429
7.17486
4.72242
3.39321
4.36372
5.47821
0.724371
0.718617
0.810411
3.02079
2.61985
2.79068
2.54537
2.91514
1.38696
0.218515
0.30634
0.287399
0.273888
0.464694
0.284918
0.29562
0.311873
0.330418
0.42252
0.349641
0.387942
0.533201
0.479672
0.589861
0.576224
0.721148
0.806613
0.248665
0.251309
0.265023
0.264859
0.241316
0.231316
0.209935
0.269352
0.223009
0.789777
1.8117
10.1273
7.33936
3.60962
4.35717
5.52844
0.787731
0.840137
0.920336
0.843768
0.898342
2.13266
2.32175
2.24651
2.52334
2.99091
2.06856
1.1816
0.318386
0.328624
0.29229
0.454859
0.47188
0.310683
0.308336
0.329142
0.351503
0.414618
0.373177
0.542322
0.509188
0.595643
0.647278
0.729696
0.766512
0.276542
0.265319
0.232793
0.293498
0.281782
0.254491
0.245423
0.319437
0.236784
0.224544
0.330602
0.86781
9.84249
11.2001
7.49129
3.58597
4.45296
5.70717
0.830641
1.00247
1.18956
0.939052
1.02763
1.82949
1.47208
0.933202
1.00112
1.9927
2.18588
2.5446
2.95255
2.48317
2.13099
0.605496
0.345348
0.325214
0.44396
0.473825
0.325193
0.328341
0.349737
0.374207
0.400022
0.553597
0.513289
0.605108
0.660802
0.698565
0.758244
0.302254
0.319378
0.295074
0.248683
0.249057
0.27097
0.286961
0.259836
0.334763
0.307203
1.72601
2.49478
0.241297
0.235143
10.2517
7.29755
7.04484
11.4057
7.76151
3.63366
4.54875
5.91913
0.912761
0.805851
1.07055
1.20277
1.13502
1.4044
1.66362
1.0369
1.12286
1.90799
2.14635
2.52699
3.06518
3.27101
3.0874
3.87741
0.641784
0.40977
0.348312
0.429296
0.462463
0.350669
0.346671
0.370389
0.400717
0.498965
0.540404
0.586575
0.639251
0.693383
0.739234
0.773232
0.33738
0.335561
0.262452
0.261986
0.276741
0.293221
0.312759
0.358075
0.32708
0.264369
0.36102
0.458472
10.664
7.53974
6.47381
4.31497
4.3917
11.5843
7.60072
3.7155
4.14697
4.95762
1.00671
0.876719
0.838714
1.61549
1.25986
1.35025
1.15896
1.24828
1.86929
2.11717
2.63669
3.13222
0.944852
3.87775
3.92187
4.47755
0.854856
0.455416
0.38679
0.429776
0.462374
0.371141
0.373309
0.398423
0.498412
0.539005
0.584337
0.635693
0.680297
0.713926
0.770654
0.782891
0.376176
0.37787
0.283054
0.282784
0.298944
0.315768
0.331774
0.385257
0.349436
0.332951
0.283579
0.302671
10.4477
3.29171
6.16611
5.39711
4.35535
11.7404
7.70914
3.51002
4.33029
5.22201
6.51452
1.11569
0.862337
0.976293
0.867314
1.29764
1.56127
1.41971
1.87386
2.27455
2.71537
2.99761
0.994423
4.63675
4.81248
5.59013
0.965409
0.532891
0.421966
0.46009
0.426059
0.396673
0.401668
0.494671
0.535264
0.627015
0.578133
0.66774
0.709718
0.711793
0.759966
0.823954
0.421507
0.407905
0.417834
0.304296
0.303464
0.330321
0.349412
0.372167
0.364646
0.306066
0.349317
10.9353
7.30173
2.47821
2.7169
4.9653
4.35675
3.59392
8.10778
11.6782
3.65402
4.28726
5.04612
6.20935
1.23862
0.892839
1.06792
0.919244
0.979825
1.46353
1.57339
1.37164
1.94505
2.32959
2.63831
3.13335
1.47401
5.5549
5.89806
6.515
1.2099
0.611265
0.444856
0.463035
0.42899
0.429548
0.502869
0.534686
0.617387
0.580809
0.68116
0.711791
0.749129
0.798986
0.857106
0.474619
0.456775
0.45167
0.400129
0.330298
0.332456
0.351184
0.365318
0.38138
0.330769
0.412163
11.7556
8.623
6.4432
5.50839
1.92308
2.16862
2.59469
4.1624
3.56008
3.08902
1.56117
8.09184
11.4655
11.6747
3.6375
4.28798
5.73851
5.04662
1.19567
0.94388
1.04419
0.973716
1.51542
1.70893
1.33248
3.13816
2.00076
2.24162
2.7031
1.59782
6.75857
7.27256
8.13402
0.473551
1.45147
0.632386
0.4666
0.466554
0.554019
0.531743
0.636343
0.643753
0.598497
0.691277
0.752923
0.811263
0.537123
0.500036
0.485586
0.428655
0.414895
0.351333
0.347283
0.371955
0.394284
0.355366
0.440429
0.617021
0.702066
8.36457
6.67936
5.12869
4.42389
1.77569
2.19127
2.62916
3.42764
2.94203
1.4646
1.24731
1.07337
0.860721
0.799973
10.8309
7.80641
10.8555
8.13343
3.16462
3.67723
4.21667
5.60405
1.17294
0.996242
1.0563
1.72703
1.52246
1.33607
1.26962
2.69359
2.68788
1.97713
2.33248
1.95461
9.22397
8.37729
9.37245
0.666735
1.56177
0.501304
0.557485
0.639103
0.583286
0.686661
0.732792
0.786206
0.541475
0.520549
0.462879
0.440202
0.418149
0.380345
0.375293
0.39912
0.513285
0.384168
0.741298
0.619381
0.680215
6.409
5.41963
4.19619
3.58392
1.79217
2.24733
2.47653
2.82513
1.57428
1.23732
1.30377
0.760503
1.04561
0.825783
0.900504
8.01285
6.67113
6.2525
5.15082
3.0025
3.52707
4.60312
2.63039
1.13366
1.0573
1.6454
1.40684
1.532
1.36024
1.22197
2.36244
2.40651
2.00183
1.8042
11.3033
10.5293
11.3653
1.0734
1.75269
0.552547
0.322408
0.635523
0.700522
0.75961
0.561334
0.49899
0.479269
0.452833
0.426529
0.403017
0.39636
0.462809
0.401892
0.691125
0.616146
5.04642
5.20355
4.42532
3.43665
2.91191
1.92208
2.12035
2.36741
1.64355
1.45871
1.28052
0.768993
0.819099
1.128
0.891278
0.984568
5.79421
5.17641
5.13595
4.2985
2.32756
3.11933
3.40962
2.69069
4.32648
1.1215
1.72947
1.56773
1.47289
1.30098
1.19121
1.80687
1.99252
2.03127
1.84994
15.1817
13.6399
15.6491
3.07201
0.617991
0.902039
0.681376
0.743262
0.54147
0.513411
0.483969
0.459919
0.433655
0.429523
0.471779
0.437801
0.67673
0.587682
4.25038
4.32604
3.54113
2.79965
2.41798
1.82953
2.01411
1.58802
1.39072
1.23524
0.73914
0.801274
1.10345
0.887542
0.980629
4.27265
4.13339
3.34532
1.89332
2.0972
2.38375
2.6044
3.55148
1.50034
1.37258
1.25155
1.64509
1.58003
1.79791
2.64488
20.8775
27.3957
9.45655
0.677825
1.11616
0.739196
0.560257
0.525762
0.4952
0.462851
0.458289
0.506371
0.641492
0.605448
3.51507
3.45936
2.81686
2.32353
2.0518
1.73467
1.51063
1.32712
1.17599
0.701314
0.770843
1.04884
0.849662
0.94195
3.40615
3.40175
2.78919
1.95536
2.1278
2.30828
1.81823
2.82759
1.41158
1.30882
1.5097
1.54038
1.67697
4.70916
46.1538
45.4947
21.3419
0.754549
2.34164
0.566036
0.536535
0.494039
0.502083
0.618624
0.66322
0.617523
2.83005
2.81309
2.33797
1.98757
1.76637
1.53934
1.35298
1.20186
0.722681
0.795328
1.07356
0.873576
0.967579
2.78428
2.77102
2.32925
1.85494
1.98324
1.68678
2.347
1.35724
1.43021
1.45601
1.52722
1314.36
10.096
77.9119
81.036
51.3607
1482.22
0.57955
0.541244
0.556468
0.553664
0.848959
0.669739
0.63024
2.30199
2.32658
1.99986
1.72339
1.50583
1.33252
1.18733
0.734069
0.800822
1.07025
0.880699
0.966507
2.21336
2.23581
1.98269
1.68309
1.53066
1.95586
2.00959
1105.25
1207.46
23.4047
139.851
140.004
1582.05
1368.86
1951.64
0.594757
0.541555
0.613936
0.610646
1.41886
0.685711
0.625129
2.01128
2.00478
1.7267
1.50891
1.33495
1.1959
0.749651
0.819722
1.08029
0.982876
0.896165
1.97308
1.75619
1.5274
1.74006
1.81119
1.77997
764.692
975.823
1147.83
53.4524
1532.98
1304.3
1833.47
1961.89
0.621454
0.617008
0.683091
3.05538
0.699389
0.634823
1.67086
1.68281
1.48697
1.32162
1.19071
0.750479
0.832169
1.08565
0.991898
0.909469
1.76057
1.57274
1.62301
1.65276
1.63803
1.61587
713.312
611.642
896.772
1138.6
1896.92
1679.09
1524.28
1292.51
1911.22
1981.18
0.660358
0.681178
0.756274
0.681862
0.700277
0.740031
1.54804
1.37307
1.2523
1.13419
0.81067
0.822033
1.06372
0.964322
0.918442
1.57055
1.5248
1.52905
1.50798
1.48163
557.669
507.44
863.987
1195.08
2190.79
1964.01
1473.47
1725.34
1572.52
1349.26
2039.15
2022.68
0.695944
0.723809
0.739428
0.761954
0.822644
1.45043
1.33285
1.23495
1.13747
0.853111
0.878204
1.06159
0.990498
0.932856
1.42033
1.38875
1.34338
2452.43
445.172
440.971
884.165
1369.62
2212.79
2136.62
1260.1
1496.01
1817.23
1713.64
1527.98
2269.17
2098.73
0.726045
0.752578
0.787695
0.820109
1.32131
1.27177
1.20442
1.1331
0.865967
0.909188
1.06607
1.00829
0.953801
2902.59
2422.61
366.233
407.045
990.192
1881.69
2277.27
2424.09
1155.69
1260.38
1550.01
1968.74
2040.44
2051.39
2678.38
2237.05
3212.98
3027.75
2397.84
313.914
408.409
1333.73
4454.29
2421.82
2927.79
988.981
1163.25
1290.36
1654.63
2223.97
2895.77
4637.88
3463.55
2480.31
3244.11
3589.19
3080.88
2413.98
292.312
487.485
3078.94
2704.63
3774.85
876.828
999.831
1193.13
1365.71
1844.83
2687.29
6776.02
5315.47
3167.56
3689.57
3997.22
3097.68
2525.72
321.79
958.512
3286.69
5363
596.715
869.487
1048.55
1261.85
1514.89
2208.03
3718.9
12568.6
2698.31
3451.14
4263.66
4410.84
3167.3
2828.43
573.529
4696.85
129.266
536.957
868.413
1148.96
1397.41
1808.08
3042.4
7544.51
2974.07
3096.99
3751.31
5007.37
4811.5
3402.95
3637.19
10117.5
83.7189
121.428
493.339
873.543
1332.65
1665.92
2487.23
6174.33
2506.07
3424.76
3574.27
4141.23
6028.74
5286.03
4125.84
6826.09
91.1768
88.1435
117.562
463.027
887.809
1679.6
2289.44
4978.24
1309.83
3035.31
4004.67
4165.96
4653.16
7393.62
6188.16
7092.79
97.2219
99.1888
95.763
118.764
447.131
922.792
2460.24
4556.34
1076.59
1492.05
3854.47
4793.4
4948.16
5462.16
9132.79
9414.28
97.6955
105.687
110.739
107.944
128.77
449.924
1032.38
5230.78
930.521
1174.24
1637.93
5310.73
5935.4
6118.51
7322.18
11237.2
92.3576
106.142
117.891
127.696
127.767
160.264
520.623
1298.73
946.788
1045.25
1286.95
1763.24
8148.59
7698.32
8262.31
9319.18
85.3099
100.282
118.329
135.871
154.152
163.429
249.506
1060.46
1075.2
1057.86
1172.13
1442.19
1880.14
14016.7
10458.9
14414.2
128.451
89.7419
111.809
136.295
164.032
200.792
246.38
662.613
1335.73
1176.34
1182.61
1334.69
1686.6
2091.58
27315
13187.7
577.399
121.15
97.4213
128.803
164.449
213.974
307.769
600.128
2463.16
1551.08
1292.38
1344.45
1575.23
2120.23
3109.53
66796.1
901.639
523.261
117.721
109.703
155.408
214.402
328.798
763.845
2878.03
2845.11
1774.17
1450.4
1585.6
1988.16
3054.8
8276.3
1000.82
888.36
481.755
119.351
129.693
202.409
329.338
817.146
2613.51
3270.79
3267.67
2057.23
1697.02
2001.42
2868.34
6050.36
1174.36
1015.68
885.565
451.934
129.98
165.653
310.25
817.217
3252
3012.4
3738.2
3767.83
2482.63
2135.19
2890.44
5718.89
1268.9
1185.59
1069.48
890.725
436.063
162.057
249.014
767.08
3350.32
3576.5
3499.15
4304.24
4383.13
3215.97
3090.19
5794.35
1486.17
1271.54
1220.49
1176.01
905.95
438.783
251.672
601.851
3292.87
3821.05
3885.78
4083.15
5107.11
5177.41
4696
6240.23
1705.82
1513.69
1305.33
1295.65
1367.75
944.02
509.388
662.151
2894.54
3690.76
4438.65
4223.24
4845.81
6498.27
6508.45
9144.6
2081.51
1891.11
1763.56
1573.73
1385.72
1439.96
1727.42
1057.79
1047.99
2435.22
3005.16
4099.69
5264.65
4648.49
5859.63
9328.19
12223.3
1696.78
2082.92
1987.3
1868.42
1684.69
1541.82
1722.54
2538.61
1340.88
2175.78
2404.84
3048.88
4477.41
6379.89
5552.57
7991.87
15291.5
1849.58
1532.47
1655.49
2103.73
2130.35
2032.92
1882.57
1847.51
2376.79
5421.47
2185.35
2378.32
3073.4
4817.76
7787.05
7739.99
18038.7
1913.83
767.549
1437.73
1435.32
1656
2149.75
2379.93
2302.89
2257.97
2552.96
4759.9
851.737
1214.36
2240.52
2391.81
3148.21
5224.57
9545.46
10966.2
2072.79
601.029
1323.44
1380.93
1716.67
2234.1
2818.14
2786.85
3117.49
5150.54
678.525
1084.54
2377.28
2499.53
3381.82
6144.64
11967.8
2347
480.676
1261.06
1379.21
1878.55
2385.32
3654.13
3856.52
6353.93
563.614
1004.24
2650.55
2796.16
4103.3
9653.35
2831.04
396.12
1254.59
1449.64
2243.21
2651.44
5631.88
7835.39
489.636
972.738
3214.88
3592.67
7037.52
3662.68
339.607
1321.45
1653.7
3195.17
13421
450.541
999.636
4584.37
6727.86
5229.93
315.264
1521.45
2238.37
7538.43
448.503
1121.98
9844.56
343.182
2101.57
5136.77
527.172
1509.45
610.175
5000.13
1009.21
3464.71
0.906033
0.866226
0.890961
0.890874
0.920146
0.916364
0.929825
0.929219
0.947144
0.833829
0.854734
0.862939
0.886652
0.893367
0.916532
0.926062
1.00141
1.02603
1.04903
1.08585
1.11264
0.946254
0.958976
0.945287
0.946325
0.954568
0.949099
0.973687
0.965986
0.992033
1.1561
1.17651
0.806157
0.828109
0.839627
0.861549
0.873062
0.892919
0.909473
0.929308
0.945689
0.964028
0.983286
1.00319
1.03445
1.05781
1.10967
1.13609
1.2259
1.24057
0.97686
0.99181
1.0114
1.02753
1.05182
1.07392
1.11428
0.97226
0.97675
0.97461
0.973643
0.99298
0.981238
1.02188
1.00873
1.04181
1.11412
1.14401
1.31083
1.33654
1.22351
1.21769
1.29957
0.786536
0.805918
0.82244
0.841352
0.858984
0.877602
0.897735
0.91529
0.943118
0.963758
0.989152
1.0085
1.07722
1.09512
1.15186
1.16438
1.24395
1.2673
1.34963
1.38602
1.48037
1.49355
1.62784
0.999363
1.00867
1.02782
1.04396
1.06906
0.997958
0.999805
1.00858
1.00126
1.03386
1.01938
1.09376
1.06965
1.05299
1.07845
1.13811
1.14204
1.22522
1.25104
1.57201
1.3661
1.48764
1.31694
1.36266
0.775566
0.793402
0.813497
0.832514
0.853504
0.871499
0.89412
0.914438
0.935878
0.961028
0.991456
1.03306
1.16432
1.10746
1.22616
1.254
1.34778
1.36536
1.45047
1.67496
1.72191
1.74129
2.01096
2.04304
1.94612
2.08962
2.09298
2.81736
1.02165
1.03131
1.04777
1.06375
1.14623
1.118
1.02626
1.02336
1.04387
1.03341
1.09658
1.07438
1.05995
1.19813
1.16828
1.08894
1.12846
1.15943
3.64953
3.08002
5.68419
1.23204
1.23543
1.32379
1.35547
1.61031
1.64165
2.30371
1.93463
1.55235
1.61895
0.781352
0.795405
0.820591
0.836578
0.863033
0.879676
0.908934
0.928758
0.991652
0.968269
1.04748
1.07488
1.17056
1.18769
1.36489
1.36135
1.54469
1.55821
1.73406
1.76464
1.94809
22.6247
21.1815
12.5048
2.01019
2.23353
2.40847
2.67659
2.95006
3.09877
3.09193
11.6204
4.93166
1049.75
1328.27
1243.72
1827.81
1541.16
1655.97
1768.16
1837.12
1.04703
1.04918
1.07231
1.08639
1.14232
1.11815
1.05712
1.05061
1.10025
1.08146
1.07018
1.252
1.21984
1.18996
1.16376
1.10703
1.15406
1.25072
1.18745
1.24183
895.026
629.096
109.767
57.5021
25.0551
2.45837
4.09398
5.38131
14.9342
1.36693
1.37321
1.38326
1.37253
1.59757
1.62805
1.77833
1.70288
2.28791
961.203
1258.28
1472.73
1399.3
1619.75
1764.68
1798.32
1857.78
1809.49
1760.67
0.872108
0.838342
0.903134
0.891501
0.949502
0.942049
1.00008
0.99618
1.05263
1.0508
1.12018
1.11891
1.23825
1.26887
1.31878
1.33541
1.1816
1.45557
1.26752
1.32068
2.81092
2.80645
3.38546
3.80982
3.72416
58.324
94.0572
300.494
182.525
56.4286
39.2162
6.33621
8.38309
12.1631
11.422
36.149
16.803
14.8477
390.186
930.606
614.546
675.495
956.065
1183.42
1309.92
1303.29
1608.34
1596.75
1606.11
1519.25
1823.43
1883.25
1918.11
1741.71
1891.02
1811.81
1.07565
1.07597
1.09701
1.11295
1.14477
1.12134
1.10973
1.09198
1.08169
1.30377
1.26924
1.23593
1.20897
1.18381
1.1606
1.1281
1.17385
1.1808
1.24284
1.24846
1.3106
1.23988
185.297
492.093
331.485
848.21
525.167
92.2047
198.279
70.5425
23.751
1.37395
17.4244
3.06068
6.26418
4.30508
1.54996
1.48398
1.66933
1.56415
1.7038
1.69499
1.93101
1.8095
3.07326
949.702
1332.32
846.873
1459.93
1649.85
1260.26
1490.18
1772.32
1777.58
1795.22
1615.39
1797.63
5.16664
1.15553
103.713
29.1456
2.41736
1.18244
1.78486
1.13436
1.48357
1.09076
1.32871
1.29283
1.24757
1.40438
1.3731
1.59988
2.28061
1.47732
2.75541
4.13783
4.22364
7.72181
22.2831
8.64199
9.29309
39.2757
42.6553
14.874
13.5969
19.0674
19.9654
26.6759
28.3059
122.092
185.458
344.78
238.088
132.753
83.7406
49.3216
54.2169
99.1122
66.7276
73.0135
608.532
480.519
648.937
963.359
854.333
1267.45
1172.37
1578.74
1415.72
1475.72
1678.45
1847.02
1774
1672.83
1856.47
1937.88
1945.46
1.13361
1.10419
1.10202
1.12192
1.14424
1.1257
1.11747
1.14613
1.3585
1.32211
1.28275
1.25211
1.22405
1.19715
1.1811
1.1587
1.40807
1.35052
1.40941
1.46357
1.42428
1.45733
1.19875
1.19444
1.20045
1.22559
1.38926
1.29739
1.33507
1.25632
505.805
397.254
234.308
35.6364
172.599
95.9813
1.47347
1.75405
1.69094
44.9706
4.37155
12.494
7.73315
1.98036
1.89822
2.07977
2.00705
2.40523
2.08919
5.13458
465.907
1040.9
1313.68
901.507
645.93
1473.32
1207.06
1517.2
991.501
1797.2
1841.36
1923.68
1805.39
1664.94
222.341
246.269
59.001
11.5488
252.709
218.875
30.4804
11.1155
21.3269
6.3922
13.4821
4.23656
9.35097
2.36511
4.43064
10.124
30.3288
18.4001
37.2834
20.0341
26.5371
65.048
101.76
111.539
56.9113
53.9335
120.624
137.425
62.5536
70.126
95.1466
96.223
126.463
103.598
402.482
215.7
290.878
268.994
210.886
189.662
238.942
141.094
220.594
715.487
527.286
1197.81
937.156
1045.72
1487.8
1333.68
1675.55
1590.69
1779.59
1720.72
1.43958
1.40581
1.131
1.14765
1.15067
1.1351
1.13309
1.15818
1.17555
1.32593
1.28102
1.2634
1.22852
1.21538
1.1898
1.18093
1.1628
1.3706
1.33305
1.3531
1.37932
1.33165
1.36311
1.1946
1.2019
1.21641
1.26406
1.52039
1.38012
1.4127
1.3034
91.7154
191.444
291.511
1.63522
1.93472
1.91706
2.30858
2.32224
23.719
102.274
7.08896
21.6148
2.57277
2.33278
3.9632
3.00022
8.20408
314.405
604.537
518.102
1137.83
1172.05
1387.26
1803.05
1940.49
1029.52
1657.32
2063.75
2001.21
2022.3
1875.12
223.107
198.75
102.353
249.121
231.554
290.71
234.678
151.638
319.669
395.977
225.174
107.489
175.433
66.7589
124.783
50.7562
66.0856
89.0474
64.3334
143.555
110.046
103.049
103.65
113.156
219.898
241.678
259.806
295.844
188.721
181.453
321.586
339.323
206.501
226.578
290.374
283.387
325.095
552.378
456.748
517.32
358.686
458.243
467.918
415.277
503.799
1028.96
827.421
1386.32
1239.65
1594.76
1516.13
1676.71
1611.41
1.48239
1.42109
1.37562
1.34152
1.16716
1.16243
1.16397
1.17337
1.19276
1.29984
1.27313
1.24798
1.22828
1.20859
1.19441
1.18644
1.2969
1.31641
1.27663
1.30357
1.27943
1.30285
1.20879
1.20836
1.2393
1.33376
1.2534
1.21331
1.68011
1.52388
1.54366
1.4183
1.81576
234.377
140.68
2.21092
2.20637
2.57627
2.49807
3.53525
4.04785
2.50946
26.6631
127.277
31.9599
9.88564
6.2467
28.5303
587.954
389.313
1298.94
1036.67
1762.21
1889.3
2168.27
2181.12
2255.85
2141.82
6.55229
33.2015
256.85
280.872
64.4644
236.927
310.733
252.148
417.656
447.119
256.887
338.181
455.189
436.255
454.395
299.521
376.811
278.168
242.558
228.054
388.344
290.995
400.981
332.482
340.422
455.454
503.142
503.159
531.512
448.668
427.704
379.657
594.366
611.937
472.944
491.753
631.949
628.666
821.032
927.48
805.284
768.262
834.128
745.655
807.068
1283.36
1180.9
1453.39
1385.1
1492.75
1430.59
0.890014
1.61698
1.49827
1.4598
1.41379
1.35988
1.32535
1.29072
1.18196
1.18255
1.18269
1.18469
1.21473
1.26211
1.24562
1.22512
1.21246
1.19957
1.23192
1.25322
1.23239
1.25517
1.24465
1.26405
1.21275
1.27081
1.2851
1.43218
1.25545
1.28171
1.92395
1.60323
1.68247
1.45211
2.26374
2.70351
2.83281
461.879
188.006
2.91452
2.46421
8.87712
4.68204
41.593
34.9155
23.632
142.678
231.737
81.1114
1261.11
781.263
1931.95
1711.74
2234.47
2286.59
2499.88
2454.03
3.30167
20.3636
254.26
394.882
41.0583
148.947
413.961
329.859
325.696
438.772
344.943
274.498
602.006
411.682
540.982
576.293
579.226
583.882
581.522
505.468
496.682
622.38
596.193
604.499
625.712
752.497
708.9
724.498
731.23
747.7
717.581
856.396
645.353
696.689
875.838
836.895
790.228
804.221
931.373
930.904
1010.48
1012.37
1199.15
1053.77
1070.37
1307.03
1251.38
1303.5
1258.52
0.781611
0.836588
0.892784
1.51271
1.46198
1.44294
1.40826
1.39154
1.35813
1.31211
1.25437
1.28782
1.38025
1.40434
1.19867
1.18658
1.17922
1.18029
1.21528
1.1953
1.19122
1.20151
1.21511
1.20603
1.22689
1.22245
1.23847
1.22627
1.26154
1.31373
1.4056
1.45603
1.34273
1.8372
2.31408
1.5985
1.91036
2.57701
3.71146
2.82655
3.93735
7.56799
1.9335
913.558
535.017
38.1346
14.8118
152.576
87.705
402.104
712.203
301.377
1810.73
1576.76
2277.08
2393.98
2706.38
2717.49
2.41872
12.798
215.289
451.594
24.6288
97.896
464.624
483.32
258.626
289.763
473.274
335.311
544.251
478.392
267.304
344.046
668.426
503.114
566.54
538.398
624.396
679.392
678.019
631.81
661.318
719.86
704.615
707.875
857.036
807.026
771.088
755.736
704.793
847.187
869.546
953.216
892.93
901.887
974.605
988.386
956.828
969.465
999.578
1016.49
1188.98
1142.04
1053.67
1180.34
1155.57
0.769991
0.791073
0.82267
0.890061
0.933311
1.44621
1.36857
1.35775
1.33361
1.33292
1.23058
1.27681
1.25672
1.3049
1.33148
1.31987
1.30181
1.32665
1.28939
1.28724
1.24438
1.2459
1.23095
1.19016
1.18803
1.18899
1.19275
1.22314
1.18834
1.19731
1.20446
1.21104
1.20837
1.22415
1.22852
1.26123
1.35514
1.29562
1.42858
1.58047
1.53285
1.68561
2.2
2.73768
1.90687
2.29966
3.27548
5.01091
15.2263
10.894
9.42084
21.6204
76.2106
66.3978
1702.1
1158.84
336.168
313.16
800.505
1244.69
767.725
2235.86
2431.24
2772.78
2943.65
1.95268
7.67116
164.007
428.397
14.3046
57.5724
439.838
556.65
313.469
255.457
544.099
424.443
359.259
293.949
242.547
246.842
564.096
543.039
306.521
428.57
351.338
433.521
542.374
627.264
607.724
596.792
558.855
567.552
511.552
708.482
705.162
591.539
515.911
543.268
530.355
719.319
766.912
974.437
1007.58
1004.38
985.644
990.901
1011.51
1029.62
987.084
994.244
1.31884
0.77894
0.786103
0.806127
0.833527
0.868007
0.933379
0.978111
0.801615
0.79977
0.83469
0.826199
0.87424
0.857868
1.20023
1.21132
1.15692
1.16987
1.10959
1.12645
1.05899
1.08127
0.918384
0.896837
0.964393
0.938603
1.01128
1.03398
0.984117
1.29945
1.28969
1.27295
1.28008
1.24858
1.23758
1.26401
1.25785
1.25578
1.24176
1.26506
1.21756
1.22071
1.17621
1.18212
1.22964
1.19308
1.20973
1.19148
1.20774
1.21014
1.20642
1.21315
1.21316
1.22395
1.23405
1.23272
1.23215
1.22912
1.32605
1.25565
1.48522
1.37591
1.57349
1.8305
1.72906
2.04263
2.70114
3.87067
2.41618
3.06704
4.50549
13.6008
163.034
101.128
194.204
42.8769
177.427
459.28
571.102
2268.32
1832.28
1136.81
1839.62
1212.16
2813.42
2895.79
1.54068
4.90639
413.397
102.349
196.366
8.68557
34.8323
563.437
596.208
367.379
280.733
588.945
457.157
638.757
238.559
235.133
227.399
422.471
366.637
215.416
255.258
283.478
236.704
375.722
438.197
399.174
355.2
375.457
329.599
388.103
315.683
400.747
254.024
337.24
237.57
321.367
552.363
990.567
950.071
683.036
938.69
895.085
1.23694
0.974192
1.01841
0.812889
0.821322
0.846413
0.879207
0.917713
0.830995
0.833059
0.857621
0.856431
0.891355
0.88489
1.13584
1.1485
1.0966
1.11239
1.05475
1.07228
1.01249
1.03276
0.931206
0.918589
0.970578
0.993189
0.954544
1.24802
1.23879
1.22896
1.24432
1.23655
1.20137
1.20682
1.19661
1.21977
1.16453
1.17085
1.12433
1.13403
1.23046
1.23152
1.23088
1.24261
1.23522
1.24232
1.24479
1.23722
1.24785
1.26791
1.25056
1.2527
1.24852
1.37904
1.30085
1.31042
1.63901
1.45577
1.74466
2.20509
2.08214
2.58897
3.54796
7.71033
3.17213
4.9606
9.89145
73.8427
582.991
736.172
513.548
752.971
198.797
631.287
1116.27
1423.78
1926.77
2962.77
2283.55
1.38879
2.20143
4.32403
234.584
483.928
58.2126
143.053
14.7485
543.084
662.115
344.313
251.183
633.89
390.951
665.25
623.29
511.581
508.015
197.48
214.836
283.71
247.451
179.39
191.872
201.32
179.884
237.737
264.178
251.499
223.478
214.546
199.229
170.661
160.185
142.631
124.367
166.022
118.623
708.489
194.783
506.653
2929.53
1.02223
1.09723
0.926308
0.984789
0.848533
0.86384
0.894094
0.863287
0.866553
0.883896
0.885372
0.911712
0.909957
1.08792
1.10111
1.05078
1.06884
1.01263
1.03248
0.977512
0.999195
0.945
0.967255
0.93627
1.20964
1.20821
1.20322
1.19717
1.15771
1.17084
1.16293
1.19195
1.1228
1.13472
1.08865
1.10001
1.2324
1.21777
1.25798
1.24805
1.32397
1.29714
1.34139
1.32832
1.2812
1.29553
1.34658
1.30368
1.27895
1.37904
1.29805
1.29843
1.52622
1.52013
1.84
1.82187
2.61163
2.47222
3.95808
2.9807
5.63296
18.1542
4.42526
8.09164
52.1848
252.68
502.352
1296.72
1412.37
1180.88
1228.9
1610.37
1973.15
2232.29
29.3441
1.17853
1.21841
2.02669
2.71925
8.91458
376.863
91.6276
184.863
625.166
436.687
230.086
299.209
634.167
654.345
319.826
410.403
664.105
607.618
527.132
419.928
171.516
194.327
187.61
178.237
153.366
157.353
152.089
152.944
156.3
166.765
118.73
122.027
95.7448
96.164
85.7715
82.9667
112.607
84.2605
1.00096
1.06017
0.890954
0.912716
0.955902
0.897255
0.91322
0.913499
0.916994
0.933375
0.934159
1.05517
1.07046
1.01967
1.04267
0.989868
1.01106
0.961252
0.983509
0.958144
1.20658
1.18318
1.18136
1.18426
1.12978
1.14634
1.17927
1.14623
1.09631
1.11461
1.06783
1.08325
1.26458
1.24106
1.24017
1.30479
1.27987
1.41873
1.40554
1.3938
1.42679
1.54541
1.49974
1.50373
1.46512
1.43874
1.37206
1.33858
1.51336
1.45126
1.56274
2.03946
1.80415
3.35308
3.4755
2.4279
3.27212
5.41964
5.82828
23.8066
73.3048
19.4859
202.127
414.651
744.59
1415.64
1955.16
1970.42
2306.28
8029.95
136.889
1.10159
17.5366
45.8636
1.22038
1.30165
1.38
2.23844
3.12467
7.99962
372.783
258.464
642.179
584.211
200.732
254.094
699.556
679.932
276.614
367.973
641.898
560.208
427.57
146.726
170.523
125.894
129.959
129.495
119.651
103.216
106.03
86.0003
89.7207
80.517
81.7652
79.4784
82.2333
1.05149
0.934787
0.980156
1.01474
1.02582
0.932356
0.953077
0.943927
0.95177
0.957945
0.959411
1.03391
1.05669
1.00774
1.03023
0.981681
1.00503
0.980609
1.06156
1.17894
1.17788
1.18504
1.16164
1.13986
1.11594
1.18842
1.11465
1.09515
1.09131
1.25953
1.22233
1.28783
1.32947
1.33365
1.41424
1.40396
1.55765
1.59898
1.65653
1.63104
1.85081
1.8405
1.78149
1.59393
1.55447
1.75554
1.71623
1.89079
1.8798
2.62737
2.56495
6.41125
6.59483
6.16322
4.65362
35.5248
26.0849
263.547
163.721
596.444
766.361
1117.75
1992.87
272.193
80.8702
134.763
1.26182
1.16948
12.43
38.608
1.3497
1.61481
2.19524
2.65735
7.95713
550.8
429.71
715.208
694.825
176.609
232.077
728.94
653.237
532.44
418.05
274.618
125.224
145.492
97.8993
107.162
104.578
86.4631
90.1925
84.3632
84.9535
85.9991
87.6836
1.11706
1.18052
0.983474
0.998161
1.07144
1.14015
0.976414
0.990939
0.977237
0.990059
0.9893
0.995702
1.05683
1.03962
1.01758
1.03432
1.01199
1.25362
1.09514
1.0789
1.07861
1.16921
1.17912
1.14511
1.23447
1.18694
1.15801
1.12811
1.34404
1.33121
1.42496
1.3931
1.51232
1.50682
1.72153
1.67218
1.92255
2.02101
2.52854
2.33612
2.21465
1.99723
1.9184
2.09194
2.0883
2.42198
2.49404
2.46501
5.34288
4.23737
38.6025
12.835
17.6197
10.2245
285.506
155.752
750.425
519.905
1064.2
942.894
417.518
191.975
282.805
62.9859
124.048
1.43827
1.27605
11.8943
32.527
2.61049
1.53184
5.39671
676.739
581.301
757.696
774.662
237.928
173.911
144.463
736.612
544.13
440.072
309.741
254.379
102.059
116.777
87.1463
91.0272
85.7328
85.5735
90.9552
89.4928
1.21475
1.32836
1.02761
1.08529
1.1427
1.25287
1.02519
1.05369
1.03575
1.01043
1.04904
1.04775
1.08203
1.05605
1.07409
1.33077
1.2869
1.14468
1.12965
1.14662
1.13445
1.19877
1.26805
1.18051
1.20523
1.17382
1.52331
1.51617
1.44902
1.66027
1.62405
1.87567
1.99441
1.94525
2.34751
2.28483
4.18003
3.2041
3.30915
2.99799
2.82395
2.71124
3.8515
3.84799
3.74856
3.38319
6.46061
23.2877
16.4446
200.523
90.0778
94.3099
586.369
408.972
961.962
783.771
342.156
538.421
645.33
163.795
314.247
48.7713
114.623
1.46061
1.83701
7.57485
31.1531
2.02047
4.61816
794.946
768.131
795.311
775.638
851.045
149.879
174.923
115.955
660.535
503.263
333.86
280.192
171.013
87.377
97.3377
85.3397
83.4531
91.454
88.6023
1.3719
1.56769
1.10387
1.16533
1.25567
1.41981
1.11174
1.08615
1.14871
1.14385
1.14105
1.13666
1.12932
1.42695
1.32279
1.19924
1.21049
1.18023
1.2373
1.31054
1.25797
1.31347
1.25224
1.85216
1.75967
1.71772
1.57714
2.2872
2.59518
2.39835
2.61257
2.96571
2.79613
3.89733
3.33282
4.94668
5.43078
5.37408
3.6624
8.26415
8.52407
6.59929
74.8923
38.0934
201.465
183.144
507.766
399.041
798.943
707.459
365.527
547.722
677.038
165.421
323.557
45.024
113.808
2.50502
1.84103
7.93551
5.3398
24.0874
672.086
890.053
880.477
889.92
814.785
863.982
702.755
898.792
126.721