/*--------------------------------*- C++ -*----------------------------------*\
  =========                 |
  \\      /  F ield         | OpenFOAM: The Open Source CFD Toolbox
   \\    /   O peration     | Website:  https://openfoam.org
    \\  /    A nd           | Version:  8
     \\/     M anipulation  |
\*---------------------------------------------------------------------------*/
FoamFile
{
    version     2.0;
    format      ascii;
    class       volScalarField;
    location    "13000";
    object      k;
}
// * * * * * * * * * * * * * * * * * * * * * * * * * * * * * * * * * * * * * //

dimensions      [0 2 -2 0 0 0 0];

internalField   nonuniform List<scalar> 
4109
(
0.0294936
0.0310431
0.029742
0.0310134
0.0317424
0.0314663
0.0319627
0.03015
0.0330108
0.0325449
0.0325708
0.0333186
0.0298507
0.0316902
0.032409
0.0337109
0.0334961
0.03351
0.0338681
0.0325536
0.0299015
0.0313737
0.0314109
0.0345923
0.0346237
0.0350341
0.0295903
0.0316261
0.0298768
0.0348557
0.0335083
0.0328086
0.0313972
0.0312891
0.0322226
0.0351654
0.0350532
0.0361743
0.0318924
0.029849
0.0315742
0.0317705
0.0302768
0.0355139
0.0341216
0.0954212
0.0481547
0.0334854
0.0329016
0.031251
0.0322432
0.0358538
0.0366373
0.0379046
0.0336106
0.0317937
0.0293649
0.0318969
0.0323665
0.0331449
0.0328792
0.121498
0.0367272
0.035103
0.034444
0.0418703
0.0870255
0.0337479
0.0327678
0.0324806
0.0393813
0.0373379
0.0425474
0.0413715
0.0411864
0.0341542
0.0340536
0.0326718
0.031159
0.0328947
0.0325821
0.0329289
0.0334803
0.0336143
0.0384302
0.045253
0.100149
0.131043
0.132411
0.0379105
0.0375049
0.0358032
0.0351129
0.0345487
0.0382826
0.0665303
0.0337304
0.032564
0.0427003
0.0410166
0.0398859
0.0429949
0.043713
0.0432582
0.0434024
0.0352869
0.0347659
0.0339337
0.032108
0.0341319
0.0388403
0.0333685
0.0338817
0.0341181
0.0346741
0.13821
0.0527428
0.0664515
0.0893289
0.140012
0.137568
0.0432857
0.0397092
0.0385823
0.036838
0.0361073
0.0354206
0.0344098
0.066894
0.0344531
0.033817
0.043123
0.0417124
0.0448116
0.0440366
0.0455689
0.0443332
0.035968
0.035653
0.0355727
0.0337212
0.0348149
0.0399915
0.0339472
0.0345554
0.0350242
0.0352689
0.124863
0.0734899
0.140771
0.0934682
0.143827
0.0503991
0.0405643
0.0394826
0.0376553
0.0368703
0.0361797
0.0354487
0.0343828
0.0614656
0.0330332
0.0426388
0.0412535
0.0456743
0.0437598
0.046447
0.0468461
0.0476455
0.0371339
0.0366137
0.0363305
0.0345558
0.0358002
0.0412126
0.0347742
0.0354559
0.0356977
0.0363703
0.0857442
0.156853
0.0884547
0.147532
0.147757
0.0511649
0.038783
0.0397309
0.0378945
0.0361473
0.0370802
0.0356146
0.0673009
0.0339075
0.0409557
0.0420216
0.0451887
0.0433404
0.0464316
0.0480914
0.0477229
0.0507254
0.0379034
0.0376178
0.0376499
0.0361747
0.0360477
0.0414341
0.035504
0.0361264
0.0367111
0.0370908
0.0883083
0.158455
0.154122
0.0931429
0.157213
0.0507762
0.0388934
0.0400826
0.0375248
0.0364929
0.0688124
0.0349686
0.0411787
0.0424252
0.0445454
0.0436488
0.0459791
0.0480246
0.0491898
0.051137
0.053491
0.0391801
0.0385741
0.0383982
0.0372313
0.0369125
0.0424621
0.0370112
0.0362537
0.0400883
0.0375824
0.0382753
0.0848994
0.166443
0.096792
0.161538
0.163424
0.0516246
0.0392032
0.0399783
0.037898
0.0722162
0.0353521
0.0415113
0.0424203
0.0449574
0.0439934
0.0463104
0.0473383
0.0495491
0.0514384
0.0529531
0.0570317
0.0401948
0.0393393
0.0387303
0.0410629
0.0372225
0.0428834
0.0374982
0.0414014
0.0391362
0.0387238
0.173595
0.0846238
0.168895
0.100556
0.173552
0.0522225
0.178178
0.0390001
0.0403527
0.0738792
0.036156
0.0414863
0.042675
0.0450576
0.0440032
0.0466198
0.0476818
0.0489256
0.0514043
0.0533722
0.0562288
0.0566062
0.0607034
0.0393254
0.0407661
0.0390695
0.0422313
0.042458
0.0379197
0.0437163
0.0391343
0.0404115
0.0397641
0.084977
0.181513
0.175599
0.0991206
0.179867
0.0529389
0.192185
0.184677
0.201925
0.165711
0.185362
0.156429
0.0883287
0.0370693
0.0403171
0.0423384
0.0432152
0.0439457
0.045434
0.0467574
0.0477075
0.0491797
0.0578432
0.0504672
0.0532129
0.0559856
0.0613238
0.0648614
0.0632742
0.0693733
0.0416363
0.0411542
0.0434469
0.0438745
0.0414032
0.039233
0.045223
0.0398999
0.0409901
0.0874954
0.194268
0.181034
0.0528684
0.291805
0.259642
0.201859
0.172462
0.195364
0.221414
0.0754763
0.0759825
0.0811417
0.159978
0.149359
0.151417
0.148046
0.159317
0.150561
0.0387264
0.0452334
0.0452826
0.0459864
0.0606697
0.047005
0.0479488
0.0493294
0.0507211
0.0577031
0.0522391
0.0552907
0.0651246
0.0617056
0.0681427
0.0678822
0.0765104
0.0808355
0.0429086
0.0436708
0.0450707
0.0450186
0.0427835
0.0421231
0.0402972
0.0449212
0.0414816
0.0915177
0.218409
0.302446
0.258241
0.177273
0.194673
0.221846
0.0795141
0.0814118
0.0869646
0.0826626
0.085638
0.132774
0.139184
0.139541
0.147218
0.160072
0.240387
0.119267
0.0441262
0.0474636
0.0471607
0.0600608
0.0611583
0.0491738
0.0491163
0.0506094
0.0523905
0.05714
0.0540081
0.0657927
0.0637523
0.0692208
0.0721347
0.0768433
0.0786503
0.0456585
0.0449447
0.0423631
0.0475729
0.0465223
0.0439286
0.0434544
0.0497167
0.0429092
0.041791
0.049851
0.0973094
0.294377
0.324317
0.260233
0.176716
0.19758
0.225335
0.0820357
0.0895074
0.0979474
0.087682
0.0919248
0.122685
0.10927
0.0871524
0.0904033
0.129305
0.137202
0.147586
0.158635
0.257665
0.211409
0.0650568
0.0491777
0.0496754
0.0593154
0.0612047
0.0502859
0.0506704
0.0523627
0.0541236
0.0560351
0.0663927
0.0639626
0.0696927
0.0728347
0.0749041
0.0782349
0.0475254
0.0496678
0.0476117
0.0438727
0.043934
0.0454458
0.0467594
0.0447534
0.0509279
0.0485202
0.169921
0.222057
0.0434371
0.0412712
0.304913
0.257193
0.255513
0.326934
0.265677
0.17739
0.199507
0.230036
0.0861815
0.0808368
0.0934813
0.0994576
0.0972087
0.107371
0.118065
0.0920539
0.0961632
0.127289
0.134558
0.147115
0.162411
0.318261
0.273423
0.319557
0.0649584
0.0524519
0.0511499
0.0581017
0.0604347
0.0523505
0.0522428
0.0538896
0.0560982
0.0628431
0.0655458
0.0683769
0.0715453
0.07466
0.0773511
0.0791724
0.05073
0.0507087
0.0453181
0.0450457
0.0462647
0.0476403
0.0493121
0.0529671
0.0500676
0.0451153
0.0510825
0.0557024
0.31422
0.260681
0.243283
0.192409
0.191702
0.331402
0.261553
0.17987
0.190323
0.209855
0.0906919
0.0845431
0.0826235
0.117015
0.102104
0.106039
0.0975871
0.101434
0.125649
0.133304
0.149907
0.164021
0.0870292
0.3504
0.329266
0.352848
0.0777372
0.0551276
0.0538549
0.0581752
0.0604453
0.0540304
0.0539128
0.0560533
0.0628485
0.0654781
0.0682847
0.0713624
0.0739964
0.0759228
0.0790992
0.0798322
0.0532128
0.054194
0.0469656
0.046971
0.0482613
0.0496738
0.0508926
0.0548004
0.0517955
0.0508242
0.0469148
0.0479015
0.311106
0.166955
0.230566
0.222495
0.192826
0.334703
0.262779
0.175032
0.195203
0.215467
0.241861
0.0956993
0.0839857
0.0893884
0.0840318
0.103494
0.114226
0.108682
0.12574
0.138973
0.152621
0.160453
0.0879222
0.386883
0.371461
0.405551
0.0809161
0.0590834
0.0559648
0.0604228
0.0579751
0.0560392
0.0561968
0.062665
0.0653808
0.0709956
0.06797
0.0733245
0.0758572
0.0759436
0.0787375
0.0821515
0.056871
0.056096
0.0573878
0.0489199
0.04873
0.0508966
0.0524992
0.0535602
0.0530926
0.0487641
0.0504353
0.316673
0.255876
0.144123
0.150031
0.205882
0.197877
0.174268
0.271596
0.331827
0.178324
0.194489
0.211276
0.236283
0.101053
0.0855576
0.0936483
0.0868774
0.0896803
0.110237
0.114315
0.106576
0.127834
0.140724
0.150769
0.164765
0.114245
0.42577
0.42625
0.439774
0.0927118
0.0628318
0.0580678
0.0606819
0.0582863
0.0580179
0.0632399
0.0653627
0.0704024
0.0681896
0.0741608
0.0760722
0.0781837
0.0808138
0.0838559
0.0601239
0.0598697
0.0596107
0.0555849
0.0509801
0.0510868
0.0525645
0.0534746
0.0544421
0.0507345
0.0545756
0.332287
0.280528
0.242757
0.220205
0.125446
0.133328
0.147221
0.189091
0.178081
0.162938
0.112964
0.273096
0.326601
0.331985
0.177865
0.194801
0.225571
0.211583
0.099395
0.0881184
0.0924775
0.0893792
0.112206
0.119609
0.105151
0.165273
0.130088
0.137725
0.152394
0.113144
0.473134
0.482285
0.505319
0.0599288
0.099462
0.0645879
0.0611479
0.0607652
0.066695
0.0651657
0.0716398
0.0720623
0.0693425
0.0750061
0.0783801
0.0814371
0.0646472
0.0625502
0.0620266
0.0576443
0.0568251
0.0527315
0.0522501
0.0541413
0.0559709
0.0525818
0.0562091
0.0689927
0.0741642
0.276864
0.245261
0.214982
0.196168
0.120339
0.135278
0.150085
0.170769
0.160963
0.108479
0.0999264
0.0926451
0.0825023
0.0790683
0.316712
0.265745
0.316411
0.271536
0.166291
0.179113
0.192034
0.220965
0.0985759
0.0905874
0.0934056
0.120369
0.112729
0.105503
0.102385
0.152049
0.151899
0.129711
0.141208
0.136833
0.561966
0.529995
0.526441
0.0666826
0.101102
0.063177
0.0643508
0.0721649
0.0683714
0.0746815
0.0773103
0.0802707
0.0648863
0.0643759
0.059975
0.0586213
0.0573937
0.0549058
0.0544396
0.0561992
0.0607777
0.0546783
0.0761812
0.0696918
0.0729739
0.240222
0.219898
0.193322
0.175527
0.120687
0.137632
0.147274
0.15429
0.11371
0.0996839
0.102293
0.0776867
0.0909418
0.0802071
0.0844412
0.270056
0.251219
0.237679
0.216712
0.160549
0.174382
0.199627
0.149446
0.0968164
0.0934655
0.117314
0.108098
0.113227
0.106384
0.100771
0.142453
0.14388
0.130359
0.10973
0.615769
0.595883
0.585959
0.0835054
0.105982
0.0673839
0.061135
0.0717546
0.0755899
0.0788875
0.0673075
0.0623843
0.0612879
0.0601526
0.0581436
0.0566673
0.0559436
0.0586204
0.0562866
0.0741112
0.0703321
0.211557
0.215162
0.197772
0.17387
0.157331
0.127472
0.135488
0.140605
0.116536
0.110487
0.102395
0.078811
0.0817585
0.0956394
0.0849412
0.0893226
0.224162
0.214856
0.211725
0.196732
0.140615
0.162656
0.171076
0.151435
0.194424
0.0963315
0.12077
0.11463
0.111044
0.10422
0.0994697
0.123612
0.130032
0.131213
0.115767
0.730948
0.687025
0.732756
0.133455
0.0708366
0.0790695
0.0747129
0.0781529
0.0650864
0.063498
0.0619533
0.0605186
0.0588308
0.0584205
0.0597681
0.058753
0.0741441
0.0679301
0.194005
0.195429
0.176158
0.155573
0.1426
0.125506
0.129216
0.116374
0.108725
0.101897
0.0777907
0.0812213
0.0959921
0.0856277
0.0902391
0.196333
0.189997
0.172801
0.126195
0.132678
0.142127
0.150054
0.175249
0.112162
0.107061
0.101981
0.117577
0.11505
0.122635
0.126144
0.855488
1.1725
0.32131
0.0750199
0.0880339
0.0781156
0.0665036
0.0650156
0.0628517
0.0610205
0.0603374
0.0622004
0.0711032
0.0691893
0.175154
0.173412
0.156032
0.141084
0.130885
0.119481
0.111175
0.103882
0.0975483
0.0744834
0.0782483
0.0918788
0.0823183
0.0868735
0.171672
0.173263
0.15635
0.127904
0.133963
0.140934
0.12328
0.155992
0.108651
0.104317
0.112294
0.113359
0.118378
0.198934
1.66889
1.61397
0.579513
0.0801029
0.122163
0.0672455
0.0655821
0.0627099
0.0633864
0.0690078
0.0726282
0.0706923
0.156781
0.156541
0.14143
0.129762
0.12095
0.112623
0.105219
0.0989907
0.0758741
0.079843
0.0932561
0.0837555
0.0884257
0.154182
0.154669
0.142085
0.125249
0.129737
0.118804
0.141626
0.106208
0.10896
0.109898
0.112766
4.05677
0.331414
2.33255
2.47946
1.16899
4.49724
0.0682296
0.0658028
0.0670722
0.0668073
0.0772156
0.0734344
0.0713262
0.139985
0.140841
0.130337
0.120652
0.112196
0.10549
0.0990715
0.0773421
0.0806352
0.0940963
0.08502
0.088967
0.13751
0.137775
0.13022
0.119148
0.112973
0.127975
0.130351
3.27161
3.60131
0.635954
3.59787
3.58046
4.88545
3.96707
6.43358
0.0691853
0.0659337
0.0704063
0.0706078
0.0943216
0.0744883
0.0709336
0.13114
0.130744
0.120701
0.112466
0.105464
0.0995873
0.0780783
0.0817625
0.094423
0.089892
0.0856633
0.129611
0.122246
0.113346
0.120802
0.12326
0.122457
2.21228
2.86053
3.18055
1.20752
4.51397
3.48144
6.19992
6.25916
0.0709381
0.0705047
0.0754141
0.134924
0.075358
0.07157
0.11844
0.118977
0.11166
0.104913
0.0994222
0.0779733
0.0825347
0.094641
0.0904024
0.0862712
0.122343
0.115437
0.116253
0.11843
0.116892
0.116214
1.93734
1.80945
2.49654
2.78403
3.44203
5.86295
4.10797
3.02868
5.86361
6.05954
0.0731589
0.0746848
0.0803044
0.0744932
0.0754618
0.0775515
0.114041
0.106965
0.102066
0.0968118
0.0814784
0.0818165
0.093736
0.0890157
0.0867671
0.115173
0.112628
0.113614
0.111901
0.110958
1.52363
1.47748
2.164
2.39511
6.31118
2.9807
5.59528
5.42201
3.68325
2.58969
5.49507
5.85221
0.0749054
0.0774271
0.0775025
0.0788068
0.0819798
0.109998
0.105375
0.101391
0.0970383
0.0836363
0.0848374
0.0936751
0.0902978
0.0875763
0.109164
0.107279
0.105299
6.14487
1.19363
1.201
1.84528
1.98294
5.89592
2.58196
5.25553
5.15519
4.96552
3.23831
2.13123
5.09628
5.64064
0.0772135
0.0780764
0.0802058
0.0816226
0.104231
0.102421
0.099878
0.0967541
0.0841732
0.0862863
0.0938316
0.0910669
0.0885802
6.72972
5.57148
0.933874
0.961258
1.5115
1.46816
5.43225
2.22695
5.1037
4.80251
4.70486
4.49144
2.74404
1.57428
4.65419
5.42225
7.71682
6.19527
5.00203
0.725567
0.737603
1.0983
0.598984
4.94391
1.88988
4.96102
4.68341
4.35609
4.24503
3.98919
2.11201
0.670424
4.12945
5.1913
8.4571
7.31806
5.61845
4.43879
0.548716
0.4918
0.398229
4.4301
1.55553
3.4973
4.65101
4.26075
3.91319
3.76504
3.42571
1.04656
3.41802
9.87254
7.99153
6.84946
5.00466
3.87348
0.367038
0.127278
3.8602
1.36412
2.74101
3.05129
4.32787
3.83804
3.46242
3.23626
2.71342
2.17239
11.193
9.11886
7.55515
6.31324
4.36291
3.27777
0.083167
3.12351
1.42682
2.37748
2.6296
3.98914
3.40457
2.97522
2.5781
1.51258
11.8847
11.1968
8.24732
7.11893
5.67977
3.68155
2.56274
1.72016
1.30821
1.27809
2.05782
2.21896
3.6236
2.93449
2.3794
1.48399
12.1804
11.5554
10.9897
7.35504
6.64372
4.90834
2.89181
1.35749
1.48533
1.19871
1.14327
1.764
1.80813
3.20571
2.3586
1.39309
8.19764
12.1434
11.0026
10.5337
6.4579
6.09149
3.95751
1.65785
1.5976
1.38046
1.09211
1.01801
1.48128
1.38832
2.66783
1.41467
6.91105
8.08256
11.8267
10.2447
9.88004
5.55293
5.2813
2.57455
1.60919
1.48253
1.27297
0.984513
0.89579
1.19455
0.948715
1.7609
6.28344
6.61688
7.74903
11.2342
9.30165
9.05272
4.8122
3.46508
1.51209
1.49313
1.36504
1.15975
0.870533
0.763072
0.869604
0.468576
6.29855
6.1003
6.19652
7.25069
10.4075
8.29933
8.02699
3.5479
1.33095
1.40529
1.37475
1.24213
1.03568
0.740167
0.587246
0.403875
6.85153
6.09808
5.7851
5.70282
6.63266
9.25267
7.27757
6.53078
1.42726
1.21903
1.29609
1.25102
1.10841
0.889606
0.566537
0.262904
8.06066
6.54397
5.77248
5.37995
5.15367
5.89843
7.74827
5.84148
2.64735
1.27947
1.11041
1.1813
1.1165
0.952133
0.690992
0.250284
12.0184
7.92391
6.12316
5.36257
4.90047
4.53951
4.985
6.14627
3.5407
2.30459
1.14515
1.00096
1.05558
0.959376
0.741559
0.33434
11.7873
12.0208
7.56645
5.63356
4.88108
4.33918
3.81653
3.69456
4.95589
3.08138
1.9986
1.02015
0.884991
0.907655
0.747872
0.371167
11.1003
11.5007
11.7705
7.04302
5.08987
4.31854
3.65304
2.89391
5.13995
4.64477
2.64903
1.71425
0.897754
0.752486
0.706884
0.377014
9.72923
11.109
10.9956
11.3085
6.39831
4.48208
3.6303
2.76242
5.23701
4.71766
4.32296
2.2327
1.43913
0.764241
0.576741
0.348486
8.40314
8.96471
10.9092
10.2886
10.6328
5.62512
3.75736
2.72988
5.56617
4.78097
4.29241
3.98435
1.81901
1.15965
0.587424
0.259309
7.78535
7.93315
8.09692
10.4999
9.47001
9.69975
4.6916
2.80384
5.85961
5.12663
4.33437
3.86755
3.61865
1.39804
0.842277
0.262833
6.75482
7.38167
7.48515
7.17633
9.87275
8.5769
8.27155
3.58505
6.65209
6.26602
5.42418
4.67831
3.89334
3.43185
3.19911
0.95208
0.382998
6.1371
6.2187
6.91593
7.0147
6.21077
8.97653
7.60622
5.6734
5.08225
6.44242
5.93836
4.97189
4.2205
3.4442
2.95773
2.6552
0.456136
6.24946
5.56193
5.63544
6.38895
6.51548
5.1962
7.65304
6.02893
3.40969
4.53507
4.68565
6.22489
5.56954
4.49928
3.74184
2.95733
2.37302
1.72597
5.84694
4.99019
5.01536
5.74337
5.93694
4.34514
5.36615
2.94587
2.06783
4.31058
4.02637
4.25841
6.00325
5.16715
3.99673
3.21288
2.36039
1.40392
2.44261
3.5629
5.39502
4.42549
4.37031
4.96642
5.13587
3.17557
2.53897
1.63353
3.82476
3.54591
3.8149
5.77791
4.71761
3.43137
2.55269
1.35592
1.98658
3.13549
4.91503
3.86033
3.68711
4.00684
3.44994
2.18675
1.28416
3.37771
3.09112
3.34978
5.54637
4.18058
2.71232
1.43979
1.61986
2.74904
4.40828
3.26555
2.89625
2.62357
1.85778
1.00845
2.9579
2.6464
2.83229
5.30097
3.44676
1.48558
1.31481
2.39059
3.84273
2.55421
1.67439
1.55491
0.786439
2.54672
2.17963
2.16835
2.14597
1.0508
2.0447
3.11238
1.35867
1.3686
0.59649
2.11101
1.606
1.04414
0.805822
1.68131
1.72986
0.399705
1.5681
0.662614
0.539086
1.2321
0.0959866
0.646731
0.148571
0.474834
0.0862871
0.084341
0.0856278
0.0856375
0.0870848
0.0868568
0.0875061
0.0875385
0.0882495
0.0827381
0.0838419
0.0842684
0.085468
0.0857857
0.0869331
0.0875458
0.09188
0.0933093
0.09465
0.0968912
0.0983402
0.0884445
0.0892437
0.0882736
0.0884319
0.0887419
0.0883793
0.0896063
0.0893369
0.090377
0.101028
0.102181
0.0814157
0.08252
0.0831421
0.0842319
0.0848572
0.0858043
0.0867988
0.0878895
0.0888488
0.0898277
0.0909308
0.0922946
0.0940742
0.09557
0.098635
0.100131
0.105622
0.106374
0.0902313
0.0911046
0.0921593
0.0931209
0.0944966
0.0959443
0.0983215
0.0896359
0.0900935
0.0896196
0.0896326
0.0905178
0.0898749
0.0918757
0.0913559
0.0927016
0.0981488
0.0999639
0.110611
0.112284
0.104854
0.104611
0.10969
0.0804113
0.0814372
0.0823021
0.0833111
0.0842615
0.0852606
0.086465
0.0873957
0.0891221
0.0902095
0.0916669
0.0929804
0.0970161
0.098456
0.101462
0.102641
0.10716
0.108422
0.113564
0.11571
0.122092
0.122189
0.129178
0.0910777
0.0918021
0.092763
0.0937812
0.0952508
0.0908136
0.0910865
0.0911649
0.0908531
0.0924217
0.0916467
0.09512
0.0940639
0.0933456
0.0956639
0.0993139
0.0995448
0.104581
0.106208
0.125782
0.113789
0.121449
0.110562
0.113463
0.0800082
0.0809382
0.0820797
0.0830779
0.0843396
0.0852566
0.0867496
0.0876426
0.0892557
0.0902305
0.0924682
0.0945997
0.102744
0.0998644
0.106145
0.108678
0.113123
0.114611
0.119495
0.129234
0.134895
0.135734
0.149451
0.152069
0.145751
0.154277
0.154881
0.196011
0.092056
0.0928137
0.0936337
0.0945892
0.097469
0.096225
0.0920967
0.0921329
0.0927791
0.0923016
0.0952382
0.0942257
0.0934811
0.0996736
0.0983496
0.0959516
0.0983943
0.100294
0.248564
0.214679
0.307453
0.104691
0.105002
0.110547
0.11278
0.127373
0.129478
0.165336
0.144594
0.121897
0.127954
0.0807319
0.0813238
0.0829493
0.0835513
0.0853545
0.0858838
0.087875
0.0885517
0.0918225
0.0910587
0.0953509
0.0967315
0.101571
0.103924
0.113514
0.111694
0.120938
0.129726
0.136715
0.137486
0.149327
0.714263
0.702303
0.493766
0.162306
0.171122
0.186398
0.192694
0.20251
0.217806
0.218423
0.49133
0.292913
6.43686
7.00329
6.85431
6.54129
7.16338
7.1853
6.95675
6.58405
0.0931956
0.0935562
0.0945589
0.0954935
0.0971854
0.0961145
0.0934788
0.093297
0.0952796
0.0944604
0.093942
0.1019
0.100516
0.0992003
0.0980618
0.0967064
0.0996339
0.10565
0.101573
0.104956
6.03571
5.06826
1.86215
1.31925
0.772731
0.174818
0.24949
0.305513
0.564942
0.112813
0.113169
0.114171
0.113702
0.125819
0.127895
0.139741
0.136105
0.164114
6.22912
6.91999
4.54368
7.14395
7.20559
7.19014
5.44583
6.07988
6.16813
7.17436
0.0869377
0.0845257
0.0886551
0.0873051
0.091056
0.0900583
0.0936789
0.0935058
0.0966116
0.0963593
0.100442
0.10035
0.108071
0.111167
0.116746
0.115771
0.121445
0.146871
0.12462
0.159746
0.211149
0.203521
0.247643
0.248814
0.244001
1.28004
1.78643
3.42015
2.48518
1.29583
0.996598
0.356802
0.394896
0.499055
0.505225
1.02151
0.596201
0.580091
3.88691
6.05874
4.96677
5.26936
6.15824
6.68969
6.92249
6.91553
4.97661
4.92456
7.12859
7.08255
5.57467
5.79464
6.38375
7.01993
6.60015
6.96502
0.0944606
0.0946743
0.0955552
0.096851
0.0972285
0.0962144
0.0957139
0.0950037
0.0946375
0.103986
0.102515
0.101115
0.0999382
0.0988843
0.0978917
0.0975098
0.100509
0.100881
0.104789
0.10529
0.109706
0.104588
2.68335
4.52694
3.53013
5.9135
4.6157
1.67632
2.70597
1.43475
0.75314
0.113136
0.609696
0.200035
0.348339
0.256075
0.123352
0.120286
0.129064
0.124356
0.132246
0.130982
0.149152
0.143253
0.200303
6.24613
7.08757
5.94619
4.28848
4.70124
3.65189
7.32314
7.4271
7.2473
5.99561
4.52769
5.61521
0.188863
0.103197
2.11094
0.646603
0.135754
0.105373
0.124264
0.105188
0.119328
0.104628
0.117812
0.112399
0.109754
0.121485
0.120464
0.143
0.175963
0.164968
0.201347
0.283254
0.252444
0.33659
0.661601
0.377453
0.407454
0.903029
1.02955
0.552048
0.485751
0.655883
0.633642
0.798758
0.799583
1.92853
2.54686
3.68289
2.97822
2.08563
1.51577
1.16536
1.16966
1.75766
1.31112
1.4296
4.93854
4.32199
5.15475
6.16924
5.8677
6.84966
6.64575
7.10547
7.01178
7.05422
5.21977
5.77637
6.98977
7.00406
6.84519
6.81285
6.51198
0.0976849
0.0956962
0.0957571
0.0966028
0.0971998
0.0964498
0.0961672
0.0983377
0.106113
0.104606
0.103011
0.101721
0.100582
0.0994377
0.0988004
0.0978644
0.108095
0.10574
0.107976
0.110326
0.108803
0.110229
0.101441
0.101338
0.101778
0.103436
0.114002
0.108283
0.109726
0.105489
4.62905
4.09867
3.03565
0.98393
2.53517
1.74133
0.119374
0.133281
0.131737
1.09831
0.262684
0.561176
0.364649
0.144498
0.14001
0.152575
0.148587
0.17601
0.165108
0.276697
4.41598
6.61333
7.2223
6.23276
5.30794
7.45509
3.35641
3.90489
2.72589
7.66167
7.44957
6.66572
5.50145
3.99916
4.74197
4.74041
1.19311
0.340544
4.56676
3.58405
0.686492
0.334955
0.521564
0.254419
0.401483
0.216205
0.342294
0.182496
0.247486
0.445835
0.780026
0.554852
0.962718
0.620802
0.75817
1.34607
1.67178
1.82979
1.18517
1.19724
1.86069
2.09357
1.2445
1.37519
1.67288
1.58397
1.95969
1.67442
3.94934
2.76638
3.31135
3.14337
2.68383
2.53674
2.90888
2.19016
2.70132
5.38864
4.52458
6.74409
6.05964
6.36853
7.07501
6.97286
6.92104
7.00103
6.52567
6.61315
0.10997
0.108458
0.0970658
0.0982448
0.0975379
0.0969996
0.0970138
0.0985755
0.0997015
0.104782
0.102922
0.102217
0.10075
0.100235
0.0991504
0.0988473
0.098096
0.106734
0.104837
0.105984
0.107102
0.105414
0.106762
0.101122
0.10172
0.103024
0.105669
0.120585
0.113666
0.11463
0.108753
1.79917
2.65252
3.52821
0.129592
0.142652
0.141332
0.163786
0.159066
0.784293
1.83935
0.360371
0.709521
0.199238
0.182806
0.274085
0.236297
0.369678
3.5962
5.12905
4.76302
6.8784
6.98495
7.36251
7.79121
7.71939
2.65455
3.6016
7.40806
6.47093
5.72587
4.05173
4.7635
4.77075
2.08609
4.79471
5.1165
5.63883
3.79035
2.39493
5.78655
6.27727
3.38029
1.7372
2.62083
1.23112
2.01854
1.02299
1.35955
1.58012
1.20681
2.1877
1.79516
1.73091
1.70362
1.82559
2.77634
2.8708
2.99896
3.31586
2.53528
2.37376
3.40243
3.59085
2.57453
2.82565
3.30461
3.11557
3.49689
4.70751
4.1893
4.54833
3.71783
4.26371
4.2318
3.99023
4.41084
6.37134
5.70653
6.97063
6.81816
6.91132
6.92594
6.35209
6.45632
0.111828
0.109318
0.107507
0.106011
0.0985784
0.0984299
0.0987411
0.0995369
0.100675
0.103867
0.102439
0.101764
0.100651
0.100238
0.0994199
0.0994636
0.103702
0.104573
0.103088
0.104272
0.103446
0.104478
0.102081
0.102168
0.103998
0.109944
0.105697
0.102607
0.130487
0.121553
0.122585
0.115446
0.138581
3.15792
2.29781
0.15488
0.151566
0.184856
0.179414
0.264005
0.313143
0.24962
0.790959
2.07714
0.956549
0.499581
0.41769
0.863158
5.07835
4.23291
7.38265
6.75847
7.96099
7.84702
7.56294
7.28692
6.88236
6.53763
0.210409
0.705273
4.68032
5.55242
1.2822
3.8944
5.77814
5.47019
6.30829
6.05827
5.52902
6.20886
5.92854
5.31232
5.37347
3.55639
4.2898
3.29607
2.91994
2.89771
4.23698
3.33997
4.18575
3.51506
3.69361
4.28947
4.65804
4.60075
4.71068
4.25122
4.11742
3.76082
4.9198
5.09255
4.25956
4.44551
5.1154
5.01063
5.81496
6.08015
5.63492
5.50626
5.81004
5.48552
5.69693
6.82129
6.70151
6.68327
6.72466
6.0729
6.17606
0.0882505
0.109254
0.112428
0.111046
0.109207
0.106993
0.105569
0.104043
0.09964
0.0998198
0.10017
0.100277
0.102637
0.102369
0.101657
0.10091
0.10042
0.100059
0.101264
0.102194
0.101461
0.102485
0.102115
0.103026
0.102245
0.106254
0.107069
0.11621
0.105179
0.10673
0.142463
0.126369
0.130048
0.117154
0.159513
0.186127
0.168477
4.47216
2.79441
0.249067
0.210066
0.489487
0.407423
1.21348
1.0475
0.887122
2.33092
3.05953
1.65911
7.34058
6.22741
8.09297
8.20912
7.95442
7.56018
7.10176
6.74541
0.147869
0.45295
4.10861
6.35632
0.84392
2.38468
6.33682
6.15559
5.94284
6.54575
6.07204
5.58295
6.94263
6.23695
6.87155
6.45772
6.04464
6.03658
5.64028
4.70218
4.75367
5.93671
5.41714
5.1683
5.39497
5.61137
5.49954
5.7562
5.68175
5.63632
5.58203
5.88747
5.13206
5.41438
5.92303
5.91093
5.63872
5.73429
6.03642
6.07652
6.29399
6.22884
6.63655
6.40283
6.38148
6.4618
6.51031
5.76741
5.92029
0.0813057
0.0851077
0.0894252
0.10841
0.111028
0.110167
0.108877
0.108317
0.106996
0.105156
0.102738
0.104171
0.107606
0.108723
0.101443
0.100387
0.0997168
0.0998977
0.100681
0.0999316
0.0998272
0.100272
0.100896
0.100628
0.101576
0.101466
0.102139
0.103058
0.105521
0.108899
0.114483
0.11724
0.110738
0.139005
0.163097
0.125731
0.142431
0.177413
0.231425
0.20083
0.250851
0.38972
0.284813
6.40924
5.35256
1.12015
0.820888
2.52839
1.9749
4.3846
5.80147
3.95278
8.41029
8.36428
8.49809
8.0175
7.69692
7.18736
0.132792
0.320001
3.27299
6.21657
0.558832
1.58587
6.09936
6.91302
5.33416
5.50431
6.67885
5.91886
6.84417
6.61155
5.25078
5.76532
6.50691
6.38532
6.50622
6.22877
6.4349
5.79595
5.99366
6.12444
6.12133
5.87713
5.92105
5.76587
5.79622
5.75973
5.65375
5.7
5.57776
5.42402
5.41727
5.94673
5.93583
5.9673
5.85137
6.00709
5.95813
5.985
5.86735
5.99576
6.23282
6.29595
6.00692
5.58538
5.75079
0.0798492
0.0815317
0.0836347
0.0882093
0.0915463
0.107527
0.107288
0.106747
0.105892
0.105941
0.101945
0.103819
0.103085
0.104861
0.105327
0.105129
0.104386
0.105593
0.103394
0.103374
0.101401
0.101475
0.10349
0.100558
0.100018
0.100393
0.100161
0.101776
0.100291
0.100535
0.100848
0.101112
0.101416
0.101964
0.102342
0.105685
0.111397
0.107729
0.115614
0.124358
0.122094
0.130371
0.158571
0.183018
0.142448
0.161897
0.211585
0.277397
0.677672
0.611832
0.482828
0.913146
1.83753
1.79802
8.61358
7.7826
4.25715
4.4328
6.74663
7.91624
6.74968
9.19696
8.70596
8.47006
8.0292
0.125367
0.244954
2.48015
5.11478
0.385963
1.08103
5.2052
7.04074
5.6478
5.15749
6.79148
6.34773
5.66353
5.30638
4.96193
4.9401
6.01038
6.12592
5.20811
5.65331
5.40142
5.8386
5.7595
5.7951
5.78927
5.42187
5.4511
5.01471
5.00199
4.89221
5.17011
4.77334
4.62966
4.06486
3.69965
4.3669
4.45235
5.39142
5.81366
5.8169
5.30367
5.4023
5.45357
5.40807
5.04285
5.47748
0.104909
0.0799015
0.0807012
0.0819053
0.0839253
0.0863234
0.0905278
0.0940508
0.0809468
0.0809732
0.0825053
0.0822591
0.0844166
0.0837396
0.0994838
0.0998619
0.0976157
0.0980874
0.0956137
0.0962184
0.0934581
0.0942582
0.0866422
0.0856736
0.0889928
0.0876982
0.0912482
0.0921057
0.0898989
0.104495
0.103983
0.103446
0.103806
0.102818
0.102498
0.103224
0.102315
0.102511
0.101934
0.103083
0.100439
0.100736
0.0985461
0.0988951
0.102416
0.10098
0.102225
0.100843
0.1016
0.101813
0.101609
0.101807
0.10201
0.102693
0.103012
0.103096
0.102795
0.103467
0.109282
0.105129
0.118753
0.112475
0.123753
0.137568
0.132825
0.148766
0.186514
0.234819
0.168123
0.200674
0.292206
0.635044
3.16072
2.39217
3.23298
1.46549
3.14176
5.22156
6.02722
9.54509
9.41777
8.34106
9.47975
8.53017
9.66726
8.84824
0.118565
0.195595
4.60848
1.71768
2.76462
0.28521
0.752143
6.18861
6.87955
5.79506
5.20492
6.58346
6.13344
6.62711
4.77332
4.68329
4.689
5.27859
5.18835
4.42667
4.66442
4.67996
4.42971
4.85219
4.99528
4.5354
4.4718
4.07617
4.01871
3.53977
3.60938
3.83238
2.8645
2.87748
2.5734
2.58361
3.31436
4.85836
4.73309
3.6139
4.18005
4.02274
0.105127
0.0927962
0.0963759
0.0817865
0.0827045
0.0843222
0.0865999
0.0892381
0.0826014
0.0829235
0.0837859
0.083849
0.0852608
0.0851771
0.0966907
0.0972926
0.0948329
0.095654
0.0928281
0.093845
0.0907287
0.0920256
0.0870412
0.0866912
0.0887902
0.0901217
0.0883467
0.102436
0.101959
0.10172
0.102488
0.102298
0.100005
0.100502
0.100096
0.10115
0.0982451
0.0987093
0.0964144
0.0969364
0.102126
0.102778
0.102457
0.104147
0.10358
0.103978
0.104321
0.103831
0.104639
0.10574
0.104368
0.104616
0.104146
0.112451
0.107891
0.108364
0.126972
0.117293
0.133912
0.156683
0.151234
0.177396
0.208667
0.422225
0.204706
0.275138
0.615332
1.98638
6.16453
6.89965
6.06467
7.31117
3.95895
6.80028
8.47601
9.42292
10.4176
10.19
10.2432
0.116172
0.145927
0.200937
2.92352
4.9078
1.11639
2.1769
0.444461
5.46926
6.40792
5.35445
4.77203
5.88371
5.50212
6.33772
6.47714
6.0585
5.81052
4.21263
4.3655
4.39332
4.28825
3.9438
4.01379
3.92844
3.81741
3.96289
3.98694
3.62784
3.60144
3.11151
3.19168
2.53062
2.6474
2.09497
2.14643
1.9078
1.82292
3.29187
1.83745
2.80772
4.94079
0.0960277
0.101898
0.0893397
0.0930867
0.0838987
0.0852572
0.0872004
0.0845422
0.0849126
0.0854588
0.0855411
0.0866524
0.0866525
0.0947542
0.0953831
0.0931138
0.0938998
0.0913908
0.0922769
0.0897604
0.0908069
0.0882042
0.089301
0.0879218
0.10093
0.100875
0.100873
0.100672
0.0982254
0.099055
0.0987759
0.100148
0.0965681
0.0972836
0.0949501
0.095669
0.102735
0.102123
0.104913
0.103949
0.109265
0.107569
0.110308
0.109465
0.106664
0.107682
0.110608
0.1084
0.106325
0.112142
0.107604
0.107722
0.121213
0.120635
0.139279
0.137166
0.174876
0.171485
0.232758
0.197682
0.317633
0.727067
0.261598
0.400007
1.72536
4.21853
6.44964
9.49363
9.57165
9.58484
9.77048
10.7121
10.6704
10.966
0.710047
0.105899
0.109994
0.137797
0.181619
0.331789
3.99349
1.61564
2.42636
5.61024
4.40938
4.37389
4.83353
5.62521
6.04331
4.82456
5.30255
6.14279
6.08715
5.61299
5.18766
3.78876
3.97596
3.62133
3.63958
3.52902
3.54844
3.41324
2.9536
3.22985
3.19761
2.44862
2.63793
1.98453
2.15576
1.63659
1.75711
1.49814
1.47356
0.0939158
0.0973873
0.0864627
0.0881761
0.0909847
0.0863006
0.0877624
0.0870141
0.0874329
0.0878744
0.0879426
0.093334
0.0942506
0.0916773
0.0929247
0.0903374
0.0914924
0.0890374
0.0902302
0.0890406
0.101338
0.0999625
0.100114
0.100505
0.0973035
0.0981382
0.0998359
0.098254
0.0957118
0.0966616
0.0943773
0.0951851
0.105274
0.104024
0.104053
0.107985
0.106119
0.114915
0.114259
0.113487
0.115834
0.122447
0.119661
0.12015
0.117321
0.116241
0.11235
0.110088
0.12013
0.116743
0.123324
0.147056
0.136961
0.216381
0.217019
0.170639
0.202805
0.311412
0.314133
1.00282
2.03339
0.892856
3.81028
5.78031
7.69364
10.431
11.8006
11.5349
11.4781
1.49632
2.00931
0.0999995
0.539473
1.02697
0.107936
0.112101
0.119378
0.153788
0.195727
0.316264
3.90108
3.1545
5.57899
5.13493
3.9108
4.27558
5.87293
5.97451
4.28942
4.80377
5.7577
5.58937
4.93946
3.37366
3.55624
2.95518
3.10184
3.11387
2.96439
2.5239
2.658
2.09081
2.27475
1.75617
1.89739
1.43176
1.60798
0.0966118
0.0890788
0.0922262
0.0943713
0.0946992
0.0884558
0.0900397
0.0886776
0.0895393
0.0893463
0.0896051
0.0927244
0.0938908
0.0916056
0.0925776
0.0904045
0.0914575
0.0903344
0.0943907
0.100275
0.100002
0.101444
0.0992535
0.0981084
0.097025
0.1017
0.0971245
0.0962065
0.0961252
0.105105
0.103394
0.106926
0.109546
0.109693
0.114791
0.113589
0.123169
0.125327
0.128369
0.12729
0.140658