/*--------------------------------*- C++ -*----------------------------------*\
  =========                 |
  \\      /  F ield         | OpenFOAM: The Open Source CFD Toolbox
   \\    /   O peration     | Website:  https://openfoam.org
    \\  /    A nd           | Version:  8
     \\/     M anipulation  |
\*---------------------------------------------------------------------------*/
FoamFile
{
    version     2.0;
    format      ascii;
    class       volScalarField;
    location    "13000";
    object      p;
}
// * * * * * * * * * * * * * * * * * * * * * * * * * * * * * * * * * * * * * //

dimensions      [0 2 -2 0 0 0 0];

internalField   nonuniform List<scalar> 
4109
(
-0.00552567
-0.0177853
-0.00879465
-0.0287611
-0.0299017
-0.0185348
-0.0287135
-0.0146654
-0.0392319
-0.0397011
-0.0390224
-0.042967
-0.00912972
-0.0228965
-0.0317832
-0.046374
-0.0507357
-0.046746
-0.0451161
-0.0419986
-0.00271973
-0.032454
-0.0327695
-0.0537995
-0.0546433
-0.062276
-0.00303788
-0.00825363
-0.00559289
-0.0520835
-0.0456168
-0.0470735
-0.0299937
-0.0869047
-0.061853
-0.0572751
-0.0622787
-0.0762928
-0.0165258
-0.00504052
-0.000179546
-0.013238
0.000369571
-0.0561602
-0.0518688
0.0902563
-0.0558645
-0.0471483
-0.0551004
-0.0764546
-0.0683475
-0.065918
-0.0717151
-0.0884865
-0.0239575
-0.0109581
-0.00519467
0.0150103
-0.00957988
-0.0210133
-0.0678253
0.0650804
-0.0617057
-0.0562665
-0.0523836
-0.0337326
-0.0585358
-0.0520052
-0.0577897
-0.0537258
-0.105413
-0.0804822
-0.125726
-0.125604
-0.127186
-0.0299468
-0.0327443
-0.0231425
-0.0123226
-0.0206133
-0.0117986
-0.0150718
-0.0160026
-0.0261677
0.0156348
-0.206772
0.123734
-0.236285
-0.00806223
-0.0812752
-0.0713062
-0.0615893
-0.0557943
-0.0534249
-0.0541258
0.0316259
-0.0531061
-0.0620725
-0.125483
-0.108882
-0.0979328
-0.139533
-0.137424
-0.145646
-0.151144
-0.0344207
-0.0374102
-0.0398965
-0.0230506
-0.00477335
0.0639416
-0.015372
-0.0156201
-0.0236571
-0.0302107
-0.578975
0.112121
0.0118663
-0.00551749
-0.309727
-0.120349
0.261543
-0.088353
-0.0778319
-0.0696306
-0.056341
-0.0551355
-0.0465277
-0.0744505
-0.0633375
-0.0570184
-0.119957
-0.111703
-0.148662
-0.133547
-0.178182
-0.166575
-0.0415847
-0.0475526
-0.0504079
-0.0340112
0.00853285
0.0595786
-0.0129584
-0.024309
-0.0271572
-0.0345272
0.0879753
0.0820158
-0.215354
-0.100511
-0.137522
0.0954442
-0.0863061
-0.084229
-0.0757826
-0.060205
-0.0487091
-0.0438268
-0.0397027
-0.00610037
-0.0286959
-0.10905
-0.100066
-0.148143
-0.123474
-0.166362
-0.18152
-0.214798
-0.0519688
-0.0580893
-0.0627335
-0.0509001
0.0079717
0.0295646
-0.0198833
-0.0237478
-0.0259053
-0.0427734
0.01919
-0.158058
0.0161796
-0.0697248
-0.0838348
-0.0218435
-0.0804205
-0.0853659
-0.0724398
-0.0459796
-0.0461517
-0.0282165
-0.0139092
-0.0107748
-0.0931421
-0.100553
-0.138661
-0.112061
-0.157517
-0.185376
-0.216393
-0.256852
-0.06629
-0.0724677
-0.0756447
-0.0670132
-0.0157341
0.00398107
-0.0100924
-0.0119404
-0.0241687
-0.0567775
-0.0928383
-0.103657
-0.084719
-0.0154726
-0.0943646
-0.0462676
-0.0769238
-0.0783216
-0.0945994
-0.0488297
0.09602
0.0667245
-0.0808856
-0.086071
-0.127785
-0.0968501
-0.147418
-0.1789
-0.215675
-0.256419
-0.302676
-0.0824342
-0.086632
-0.0872481
-0.0800637
-0.00853285
0.0294177
0.00992503
0.0132249
-0.0989364
-0.0381448
-0.0735755
-0.0638683
-0.0630798
0.0545265
-0.138854
-0.208947
-0.0525868
-0.0851633
-0.0605311
-0.0901954
0.0603827
0.0674143
-0.0634468
-0.06567
-0.111738
-0.0768437
-0.131143
-0.169939
-0.206604
-0.249159
-0.298432
-0.349609
-0.10419
-0.0950441
-0.0917943
-0.116271
0.0209767
0.101309
-0.0172971
-0.113176
-0.0906209
-0.0616251
-0.175213
-0.129485
-0.231248
0.063425
-0.197116
0.0100995
1.07813
-0.0566732
-0.0104109
-0.33765
-0.0965805
-0.053761
-0.0292521
-0.0864199
-0.0444917
-0.109017
-0.153137
-0.196186
-0.237445
-0.285901
-0.333438
-0.370398
-0.38306
-0.113517
-0.116786
-0.108166
-0.134048
-0.130461
0.0198044
0.100877
-0.0553851
-0.10743
-0.0841802
-0.0650617
-0.222334
-0.028417
-0.0484421
0.40264
0.0500943
1.08401
1.12376
1.13628
1.02867
1.02891
0.970495
-0.661721
-0.249251
-0.148247
-0.112637
0.0145441
-0.0465863
-0.0389331
-0.0807558
-0.132178
-0.178204
-0.371168
-0.22621
-0.272025
-0.322447
-0.394562
-0.400787
-0.41159
-0.38652
-0.136859
-0.136386
-0.153335
-0.148377
-0.125032
-0.0256105
-0.0109103
-0.0909378
-0.103888
0.33538
0.118111
1.01256
-0.10504
1.19988
1.16361
1.16969
1.07779
1.19672
1.2187
-0.314775
-0.362346
-0.329398
0.946715
0.922044
0.9931
0.909696
1.01662
0.109374
0.164561
0.160873
0.023328
-0.0275503
-0.399227
-0.104888
-0.109159
-0.155312
-0.204947
-0.360133
-0.26102
-0.310947
-0.437761
-0.419109
-0.424721
-0.437648
-0.427311
-0.437949
-0.166434
-0.159364
-0.17423
-0.165194
-0.14198
-0.122678
-0.0966725
-0.153454
-0.104097
0.778519
0.616148
1.24484
1.23211
1.15623
1.27709
1.3057
-0.247347
-0.192455
-0.194932
-0.484499
-0.31947
0.827192
0.812193
0.842609
0.942142
1.08289
-0.0893348
0.445985
0.435819
0.0322325
-0.0790081
-0.394402
-0.420995
-0.114748
-0.13112
-0.173926
-0.234482
-0.354406
-0.302885
-0.47308
-0.451144
-0.484167
-0.474636
-0.518125
-0.597443
-0.197841
-0.185647
-0.120149
-0.20305
-0.178575
-0.158229
-0.13844
-0.223371
-0.108686
-0.0777733
-0.104794
-0.263082
1.20507
1.32599
1.32307
1.2315
1.37116
1.40722
-0.797855
-0.0184686
0.187985
-0.0813401
-0.0973738
0.629672
0.410331
-0.313639
-0.168699
0.716421
0.842843
0.987769
1.16515
-0.155461
0.0240073
0.132126
-0.0274412
-0.101802
-0.401095
-0.445934
-0.129038
-0.144269
-0.191904
-0.269605
-0.354571
-0.528403
-0.491492
-0.552944
-0.553526
-0.655162
-0.867491
-0.231875
-0.244699
-0.215948
-0.123048
-0.13463
-0.174418
-0.193923
-0.150507
-0.245202
-0.215731
-0.521887
-0.250518
-0.239589
-0.0475248
1.25021
1.23368
1.16552
1.42906
1.42573
1.32478
1.4859
1.53935
-0.632197
-1.19532
0.0453425
0.20033
0.0721325
0.402802
0.584341
-0.0991484
0.0132941
0.711805
0.870689
1.07815
1.2783
-0.257093
-0.22559
-0.229262
-0.0576153
-0.0470669
-0.101542
-0.414461
-0.477221
-0.136765
-0.160901
-0.2259
-0.323468
-0.539991
-0.597723
-0.64385
-0.667017
-0.86958
-1.17166
-1.45113
-0.269805
-0.282381
-0.145788
-0.140714
-0.165208
-0.185287
-0.209472
-0.281762
-0.24249
-0.202736
-0.0787321
0.366402
1.32567
1.30235
1.23984
1.07009
1.16191
1.54991
1.5508
1.43842
1.59981
1.63101
-0.393956
-0.998
-1.7128
0.550734
0.253603
0.353281
0.129772
0.184856
0.731282
0.967524
1.22463
1.41152
0.302619
-0.185623
-0.252167
-0.261223
-0.101217
-0.0214325
-0.0522442
-0.394253
-0.478093
-0.19877
-0.135459
-0.285962
-0.568174
-0.664027
-0.756275
-0.829957
-1.09995
-1.3884
-1.76808
-2.05811
-0.315272
-0.320724
-0.120822
-0.147884
-0.166036
-0.187199
-0.22357
-0.317906
-0.283289
-0.244835
-0.0486631
0.0239513
1.43191
0.96798
1.34168
1.27485
1.14738
1.67649
1.6808
1.56814
1.72251
1.73623
1.70154
-0.110437
-2.17687
-0.695751
-1.36914
0.337176
0.548054
0.369693
0.825037
1.15498
1.38506
1.56227
0.0282256
-0.113711
-0.173898
-0.141496
-0.0751078
0.093734
0.0345617
-0.481619
-0.371782
-0.264577
-0.182756
-0.601867
-0.736977
-1.00281
-0.873084
-1.3077
-1.96731
-1.62659
-2.26244
-2.50006
-0.359503
-0.356448
-0.355653
-0.134689
-0.15579
-0.195294
-0.246833
-0.320962
-0.282247
-0.0871818
-0.073284
1.55516
1.43178
0.823138
0.955861
1.33538
1.2194
1.04432
1.79482
1.78987
1.70894
1.8459
1.84023
1.81665
0.15923
-2.72914
-0.336221
-1.7828
-0.950591
0.495329
0.658598
0.394383
1.02794
1.33458
1.55793
1.73007
0.0200477
-0.0202763
-0.0982615
-0.101882
0.0295457
0.17846
-0.00219815
-0.511472
-0.358929
-0.268909
-0.68056
-0.836282
-1.16744
-1.00337
-1.55574
-1.96385
-2.3263
-2.73536
-3.0973
-0.400831
-0.393447
-0.395971
-0.364704
-0.142036
-0.163154
-0.218336
-0.280971
-0.323082
-0.076757
-0.0420842
1.67773
1.58292
1.51711
1.4146
0.634717
0.815355
0.926443
1.29245
1.15713
1.00565
0.422218
1.88456
1.8723
1.79093
1.85988
1.9549
1.91882
1.95469
0.0572522
-2.27516
-0.508161
-1.31447
0.657118
0.862884
0.429415
1.91293
1.22048
1.53127
1.75988
0.0455924
-0.0418492
-0.0819943
-0.0520194
-0.163869
0.0327684
0.0556562
-0.533824
-0.345802
-0.896358
-0.758479
-1.31852
-1.66383
-1.15534
-2.21197
-2.8431
-3.36357
-0.416145
-0.449724
-0.444613
-0.415407
-0.373076
-0.156793
-0.182058
-0.254284
-0.324306
-0.0770585
-0.0296194
-0.396462
-0.339434
1.69519
1.61906
1.50284
1.3796
0.643436
0.811411
0.945417
1.233
1.08889
0.4564
0.208144
0.00850439
-0.159781
-0.274235
1.91067
1.94414
1.87875
1.80043
2.09573
2.0067
2.03676
2.00007
-0.0355274
-1.7394
-0.792524
1.04828
0.784004
0.642271
0.382559
2.20323
1.9837
1.44659
1.78037
0.0311309
-0.110723
0.0175606
0.49824
-0.351403
-0.049262
-0.725064
-0.493757
-1.56098
-1.15115
-1.92962
-2.78936
-3.50485
-0.464143
-0.49046
-0.474008
-0.433666
-0.378844
-0.177053
-0.22048
-0.303498
-0.0573636
-0.0712615
-0.333857
-0.440303
-0.370955
1.71407
1.60611
1.47791
1.32233
0.66172
0.834433
1.00273
1.15682
0.497108
0.254789
0.334104
-0.330715
0.0553503
-0.24426
-0.113771
1.89924
1.96491
1.81811
2.0362
2.25054
2.12711
2.0812
2.38182
-0.247166
-1.14009
1.2813
1.15735
1.02128
0.999861
0.320034
2.07158
2.34372
1.78109
0.219212
0.148056
0.90141
0.566209
-0.251412
-0.39128
-0.877453
-0.565323
-1.67143
-2.56348
-3.4993
-0.519018
-0.532512
-0.505368
-0.451444
-0.368825
-0.228822
-0.280313
-0.0935407
-0.106745
-0.41089
-0.520067
1.83137
1.71878
1.58647
1.42852
1.23834
0.691762
0.88458
1.06014
0.535183
0.37889
0.189403
-0.415986
-0.367143
0.0386623
-0.277914
-0.137251
1.92421
2.00416
1.94486
2.12192
2.55428
2.39939
2.23117
2.53106
1.94686
-0.483683
1.71695
1.59082
1.43889
0.940448
0.234398
2.36234
2.20653
2.52625
0.198214
0.635991
2.16076
0.458321
0.476337
-1.23443
-0.769022
-2.15886
-3.33797
-0.586943
-0.581587
-0.54462
-0.462237
-0.297973
-0.362416
-0.155427
-0.149009
-0.521798
-0.627495
1.83648
1.71227
1.55033
1.33487
1.13111
0.739149
0.93548
0.574022
0.382206
0.187954
-0.503429
-0.441066
0.000276132
-0.334071
-0.182929
2.08377
2.02872
2.28306
2.93895
2.71644
2.73418
2.55358
2.00293
1.88105
1.55942
0.983623
2.284
2.72103
3.03332
0.121139
0.849305
-0.129574
-0.198454
-1.67498
-0.963704
-2.98836
-0.655569
-0.645685
-0.590303
-0.295424
-0.454013
-0.346242
-0.64801
-0.720248
1.69423
1.84752
1.45843
1.20406
0.998547
0.783542
0.603345
0.395234
0.171274
-0.626175
-0.554587
-0.0554817
-0.432075
-0.262077
2.13776
2.23396
2.5265
3.24889
2.98236
2.83351
3.49526
2.04466
2.12945
1.73273
2.66913
3.11736
3.54225
-0.208088
0.0811106
0.121359
-0.195662
-2.39661
-1.3542
-0.746014
-0.71709
-0.486897
-0.603186
-0.620884
-0.760395
-0.842687
1.63034
1.82902
1.32171
1.07382
0.837343
0.638545
0.401959
0.141268
-0.753573
-0.684873
-0.120088
-0.5504
-0.357094
2.25319
2.42312
2.8093
3.51111
3.17328
3.92379
2.02952
2.44925
3.13037
3.71765
4.23683
-32.2644
-0.239625
0.284291
0.336314
-0.404791
-31.5186
-0.852412
-0.764676
-0.888725
-1.00573
-0.709472
-0.911959
-0.993352
1.75143
1.51227
1.19669
0.910336
0.689452
0.412427
0.106091
-0.924025
-0.853385
-0.198237
-0.699443
-0.474773
2.65419
2.34256
3.29014
3.97103
4.59891
2.52075
2.07564
-34.3518
-32.2648
-0.148035
0.149157
0.193356
-29.4856
-31.3934
-31.7482
-0.989049
-1.03991
-1.17241
-1.19744
-0.824903
-1.11753
-1.19038
1.71654
1.41372
1.03314
0.779299
0.429965
0.0516543
-1.1748
-1.09385
-0.311328
-0.638386
-0.905793
3.09206
3.90918
4.7334
2.93844
2.51729
2.07912
-35.3381
-34.4213
-32.2656
-0.50402
-28.8946
-31.134
-33.9284
-30.9592
-1.32356
-1.49496
-1.54122
-1.34406
-1.42987
-1.46545
1.64134
1.24324
0.941314
0.470072
-0.00754474
-1.56696
-1.43707
-0.44893
-0.843007
-1.17651
3.7583
4.71492
2.85151
3.50991
2.52585
2.06905
-36.1753
-35.485
-34.4552
-32.2497
-35.0408
-27.4367
-28.653
-30.8814
-34.064
-30.747
-1.76569
-1.98058
-2.32027
-1.9277
-1.76914
-1.93904
1.51361
1.01731
0.454184
-0.102757
-2.15629
-1.86629
-0.628163
-1.1012
-1.51601
4.54755
3.21386
4.20031
2.7677
2.20232
-36.1852
-35.6098
-34.4718
-32.2294
-33.8677
-35.2814
-27.57
-27.4382
-28.5246
-30.6543
-33.9774
-30.732
-2.30477
-2.89549
-2.43802
-2.56348
-2.69968
1.60739
1.00506
0.377208
-0.258382
-2.5327
-2.25115
-0.862469
-1.40865
-1.88449
3.72427
3.13595
2.45531
-38.8083
-36.0599
-35.6965
-34.4818
-32.2063
-33.9363
-35.4446
-25.452
-27.6081
-27.4076
-28.4327
-30.4472
-33.8517
-30.6515
-3.21615
-3.36437
-3.41114
-3.36236
1.74577
1.00957
0.259489
-0.472631
-3.13208
-2.76574
-1.15586
-1.77291
-2.31501
-41.6608
-38.9164
-35.943
-35.7581
-34.4933
-32.1837
-34.0721
-35.6043
-25.0131
-25.471
-27.6376
-27.3596
-28.3606
-30.2621
-33.7072
-30.483
-46.3562
-41.8571
-38.9894
-35.8556
-35.8035
-34.5073
-32.1607
-34.1863
-35.7767
-21.0321
-25.1931
-25.4863
-27.6407
-27.333
-28.289
-30.1432
-33.5587
-30.2809
-49.0535
-46.2012
-41.9696
-39.0501
-35.7968
-35.8389
-34.5236
-34.2726
-35.9661
-25.3541
-20.8344
-25.3254
-25.4858
-27.6248
-27.3225
-28.2123
-33.4391
-94.1987
-48.6176
-46.1768
-42.0498
-39.0797
-35.7585
-35.8617
-34.3228
-36.1407
-20.0996
-26.1353
-20.8431
-25.3895
-25.4844
-27.5999
-27.3284
-33.3856
-30.5456
-103.5
-47.5057
-46.2369
-42.1106
-39.0853
-35.7389
-34.3237
-21.6877
-20.2192
-26.96
-20.8723
-25.4138
-25.485
-27.5748
-27.3353
-44.5258
-30.9091
-112.461
-46.284
-46.3205
-42.1425
-39.0747
-34.2929
-20.946
-21.7545
-20.2885
-27.7461
-20.9072
-25.4156
-25.4917
-27.5652
27.5356
-52.1167
-30.5397
-120.556
-45.0493
-46.395
-42.1502
-39.0506
-20.8956
-20.9036
-21.8328
-20.3599
-28.4749
-20.9518
-25.4091
-25.4997
35.0714
30.6577
-60.6024
-29.9493
-127.693
-43.7999
-46.4013
-42.1339
-20.4749
-20.8399
-20.8634
-21.8879
-20.4459
-29.1811
-20.9807
-25.4182
47.3701
36.2104
33.8087
-68.4834
-29.2348
-134.433
-42.6541
-46.3364
-20.4793
-20.4062
-20.7852
-20.8296
-21.9262
-20.5427
-29.8643
-20.9702
50.0498
48.239
37.3989
36.1824
-75.6607
-28.378
-141.487
-41.8849
-20.9047
-20.4079
-20.333
-20.7321
-20.804
-21.9543
-20.6372
-30.2902
49.9722
50.6052
49.1489
38.397
38.214
-82.6943
-27.6074
-146.791
-20.9507
-20.8467
-20.3329
-20.2652
-20.682
-20.7849
-21.9761
-20.7059
47.5841
50.5688
51.221
49.884
39.3485
40.1646
-90.4803
-27.5191
-21.6872
-20.9052
-20.7907
-20.2638
-20.2053
-20.6368
-20.7692
-21.9907
34.7825
48.3168
51.1639
51.7795
50.4773
40.3229
42.137
-97.0168
-20.0306
-21.7582
-20.8637
-20.736
-20.2028
-20.1535
-20.6017
-20.7577
27.2707
35.8922
49.1827
51.7058
52.2677
50.9724
41.299
43.6034
-25.3211
-20.1154
-21.8372
-20.829
-20.6841
-20.1501
-20.115
-20.5846
-44.2478
30.3252
37.0565
49.8949
52.1831
52.6972
51.3573
41.8976
-20.9837
-26.157
-20.1783
-21.8938
-20.8031
-20.6369
-20.1109
-20.0973
-30.3963
-51.9932
33.3997
38.0021
50.4723
52.6043
53.0535
51.58
-24.8723
-20.7771
-26.9937
-20.2457
-21.9341
-20.7838
-20.5999
-20.0928
-94.0437
-30.9939
-60.5061
35.6644
38.8867
50.9444
52.953
53.2548
-25.3461
-25.0534
-20.7789
-27.7794
-20.3262
-21.9648
-20.7682
-20.5819
-48.9835
-103.72
-30.709
-68.3305
37.5638
39.8294
51.3169
53.1501
-27.499
-25.3711
-25.1817
-20.8061
-28.506
-20.4158
-21.9889
-20.7566
-45.7036
-48.4491
-112.74
-30.1596
-75.407
39.3429
40.7794
51.5293
-27.2305
-27.525
-25.3869
-25.2412
-20.8414
-29.2088
-20.5054
-22.0047
-41.5735
-45.5558
-47.2378
-120.847
-29.4815
-82.3693
41.0082
41.3868
-30.5485
-34.2785
-27.238
-27.5551
-25.3881
-25.2628
-20.8855
-29.8785
-20.5678
-38.2669
-41.7375
-45.5413
-45.9567
-128
-28.657
-90.027
42.2465
-28.1869
-30.4814
-34.3093
-27.2069
-27.5611
-25.3883
-25.2597
-20.9127
-30.2915
-33.8464
-38.3885
-41.828
-45.6023
-44.6632
-134.734
-27.8893
-96.5399
-34.618
-30.9784
-27.8689
-30.5523
-34.24
-27.1585
-27.5477
-25.3907
-25.2523
-20.9021
-33.7441
-38.4694
-41.8976
-45.6838
-43.363
-141.797
-27.7834
-34.9758
-35.8009
-31.7621
-30.7787
-27.751
-30.508
-34.1585
-27.1318
-27.5247
-25.3976
-25.2594
-35.2408
-34.0741
-33.8623
-38.5344
-41.9489
-45.7503
-42.1563
-147.122
-35.1536
-35.8483
-31.7158
-30.5066
-27.6504
-30.3766
-34.0501
-27.1251
-27.5015
-25.4066
-35.3258
-34.1496
-33.9886
-38.5679
-41.9799
-45.7471
-41.3806
-35.2999
-35.741
-31.6814
-30.2656
-27.5757
-30.1887
-33.9328
-27.1294
-27.4919
-35.4436
-34.1574
-34.0845
-38.5793
-41.9885
-45.6718
-35.4562
-35.6248
-31.653
-30.0523
-27.5268
-29.9809
-33.8417
-27.1352
-35.5339
-34.1647
-34.1407
-38.5699
-41.9725
-35.6292
-35.536
-31.6253
-29.8546
-27.4762
-33.8069
-35.5983
-34.1716
-34.1477
-38.547
-35.7907
-35.4779
-31.5961
-29.6841
-27.4103
-35.6455
-34.1825
-34.1186
-35.4412
-31.5624
-29.5733
-35.6824
-34.1981
-35.4228
-31.5391
-35.7073
-34.2148
-3.24587
-3.63074
-3.68276
-4.19675
-4.17458
-4.74416
-3.17535
-3.64223
-2.71866
-3.96211
-4.02906
-4.58252
-4.67167
-5.33572
-5.33725
-6.00505
-8.06803
-8.83653
-8.89834
-9.81504
-9.63707
-5.98524
-6.66296
-4.71276
-5.33211
-3.56043
-4.09321
-2.60607
-3.01756
-2.1346
-10.5688
-10.2024
-4.15344
-4.3403
-4.93675
-5.04416
-5.6569
-5.87288
-6.63745
-6.6635
-7.42922
-7.37079
-8.08256
-8.83277
-9.61843
-9.60839
-10.4496
-10.6307
-11.6344
-11.5287
-6.60722
-7.32348
-7.2911
-8.08196
-8.01414
-8.80405
-9.29217
-5.21734
-5.84888
-3.91406
-4.47647
-2.83579
-3.26714
-1.94166
-2.2729
-1.46081
-8.67395
-9.07597
-12.4996
-13.4218
-10.1384
-10.9281
-11.8954
-4.23763
-4.47181
-5.0951
-5.33614
-6.03497
-6.14472
-6.8877
-7.18558
-8.01453
-8.09763
-8.89395
-9.6663
-10.5085
-10.4648
-11.305
-11.26
-12.2286
-12.3961
-13.0996
-13.425
-14.525
-14.035
-14.909
-5.69052
-6.47562
-6.58336
-7.26241
-7.45609
-4.27023
-4.89181
-3.01251
-3.5078
-2.01571
-2.36245
-0.702966
-1.18487
-1.44935
-7.12535
-7.8989
-7.64732
-8.79997
-10.1679
-14.4857
-12.542
-13.9354
-11.4014
-12.5702
-4.15014
-4.49878
-5.16377
-5.45797
-6.18221
-6.48151
-7.21245
-7.41556
-8.22842
-8.50194
-9.18471
-9.66829
-11.2126
-10.8345
-12.238
-12.2533
-13.322
-13.248
-13.886
-14.6733
-15.1383
-15.1984
-16.1151
-15.8287
-15.6713
-16.2352
-16.3607
-17.5617
-4.90704
-5.7306
-5.33326
-6.04823
0.142229
-0.340132
-3.35209
-4.08541
-2.0291
-2.50951
-0.516176
-1.08595
-1.35677
1.03106
0.585367
-5.67163
-6.46378
-6.31786
-18.7046
-17.6332
-19.3419
-7.67296
-8.98254
-10.28
-11.4592
-13.7467
-14.8802
-16.5571
-15.8936
-12.7155
-13.8038
-3.91408
-4.33893
-5.05825
-5.45962
-6.2187
-6.5571
-7.31836
-7.6412
-8.73921
-8.41114
-9.62099
-9.81811
-10.7202
-11.2803
-12.8968
-12.3754
-13.8427
-13.9609
-14.6457
-15.2243
-15.0921
-20.6738
-21.0838
-19.8243
-16.1998
-15.9703
-16.9606
-16.9213
-17.2804
-18.0892
-17.6739
-19.815
-19.0678
-29.4931
-30.2219
-29.8762
-32.5014
-31.3183
-30.858
-31.0878
-30.7754
-3.67905
-4.26417
-3.72088
-4.40793
0.510517
-0.0600373
-2.11783
-2.69306
-0.254015
-0.941737
-1.2679
1.92355
1.54968
1.57425
1.0638
-3.95018
-4.83733
-7.67646
-4.4966
-6.02211
-29.1898
-27.6118
-23.5567
-22.7976
-21.4131
-17.0133
-18.4119
-19.1835
-20.6401
-7.89694
-8.99904
-8.85252
-10.3854
-11.7214
-13.0264
-14.3318
-15.154
-16.53
-29.9024
-30.8705
-32.4356
-30.79
-32.226
-33.8914
-32.7425
-31.8978
-33.1641
-32.9855
-3.39015
-4.00849
-4.81941
-5.31787
-6.14173
-6.56996
-7.48431
-7.77388
-8.57462
-8.85304
-10.2451
-9.77535
-11.0992
-11.2575
-12.2718
-12.8459
-12.8837
-14.2251
-13.8144
-14.9883
-15.6973
-15.646
-16.6713
-16.7531
-16.3875
-22.0329
-22.956
-25.085
-24.2154
-21.6891
-20.7714
-17.6977
-17.7789
-18.3883
-18.6538
-20.636
-19.4412
-19.1158
-25.6763
-27.6703
-27.2286
-27.7819
-27.1625
-29.2515
-29.502
-30.0807
-32.1816
-31.2029
-31.6289
-31.3435
-31.7507
-31.8616
-32.3997
-32.0799
-31.6307
-31.75
-2.04822
-2.55804
-1.84367
-2.5437
1.00967
0.317131
0.146499
-0.66266
-0.96856
2.76481
2.45265
2.58176
2.15465
2.24391
1.69477
-1.70568
-2.33227
-3.65041
-3.98208
-5.51611
-6.41302
-2.94632
-24.8103
-27.2638
-26.176
-30.021
-28.6881
-24.0924
-25.2857
-23.4647
-21.4944
-6.477
-21.2383
-17.4417
-19.822
-18.7785
-7.5594
-8.53761
-10.0852
-10.5761
-12.1437
-12.5931
-14.3824
-15.3738
-17.1311
-30.1223
-31.0009
-29.9895
-32.9841
-32.7024
-34.2812
-32.4615
-32.3235
-31.5171
-32.0572
-33.2859
-32.9806
-2.72717
-3.3716
-2.13888
-2.19676
-4.32957
-5.03813
-6.00765
-6.48796
-7.49904
-8.03253
-9.11833
-9.23689
-10.5307
-11.3784
-10.2574
-12.0176
-12.6195
-13.5727
-14.0945
-14.9095
-13.562
-14.1007
-15.5955
-15.6352
-15.6599
-16.4759
-16.3507
-16.4509
-16.4368
-17.1852
-17.2965
-18.0032
-18.3695
-22.6253
-23.6162
-24.6985
-24.0702
-22.2984
-21.606
-19.3371
-19.6441
-21.434
-20.4564
-20.3661
-25.5166
-25.1596
-25.5708
-28.352
-27.2053
-29.0676
-28.8396
-30.5395
-27.6278
-30.0966
-30.3884
-31.8277
-31.4261
-31.0727
-32.3258
-30.4021
-31.4986
-0.44691
-0.25014
-0.65456
0.0266672
1.68482
0.92648
0.734988
0.28766
3.58247
3.34705
3.60379
3.24966
3.45464
2.96516
3.07635
2.41728
4.30783
4.1659
4.89194
4.91476
5.47967
5.33386
1.08567
-0.514555
-1.29942
-1.34166
-5.19534
-3.45032
-1.57556
-0.795287
-28.7029
-28.2708
-26.6531
-22.4927
-25.7649
-24.2931
-4.90996
-6.66207
-8.43708
-22.7882
-18.6244
-21.2123
-19.9827
-10.1921
-11.2516
-12.7706
-13.2749
-14.8992
-15.448
-17.4558
-29.0435
-32.7862
-33.4219
-32.2908
-31.3094
-34.3229
-35.3251
-34.4923
-35.3084
-33.1495
-33.1276
-33.708
-34.4411
-34.0556
-1.31339
-1.82507
-4.31699
-4.37168
-3.13025
-3.73063
-5.69146
-6.24905
-8.05081
-8.09702
-9.19472
-9.67042
-11.2754
-11.2279
-12.1143
-12.7024
-13.669
-13.9917
-14.9165
-14.7594
-15.5105
-16.1129
-17.0366
-16.691
-17.3189
-16.9805
-17.6932
-17.7275
-17.9606
-17.8898
-18.68
-19.0216
-19.6713
-20.0498
-24.2189
-22.9579
-23.8436
-23.2655
-22.2574
-20.651
-21.6444
-21.0745
-21.4848
-26.3883
-24.9481
-27.4619
-25.9351
-27.9532
-28.1799
-27.472
-31.0976
-28.926
-32.9832
-31.1008
5.53863
5.80876
0.937556
1.14208
2.43956
1.6893
1.8216
2.12576
2.42192
4.5085
4.21144
4.51575
4.12586
4.39824
3.88201
4.12924
3.45831
5.35364
5.21138
6.02205
6.03301
6.63206
6.44332
2.96243
2.53497
2.46644
0.681855
-3.10255
-1.53237
0.144466
1.39335
-24.7849
-26.8094
-28.0086
-3.18114
-5.21557
-7.0828
-9.13857
-11.0024
-22.6424
-24.4846
-18.9063
-21.7455
-13.0304
-14.2432
-16.4308
-16.8461
-19.0899
-28.8948
-31.134
-30.6941
-33.8536
-31.3615
-32.9544
-34.7689
-34.7686
-35.4691
-33.5289
-34.5964
-34.8234
-35.2304
-34.0461
-1.11874
-3.10767
-2.28277
-1.9289
-2.3713
-4.07385
-4.97337
-5.35542
-4.07646
-5.21525
-7.91608
-8.15891
-9.57601
-9.05065
-11.9396
-12.1849
-14.3294
-13.2978
-13.278
-14.0697
-14.286
-15.3112
-15.6207
-16.3273
-16.7444
-17.7602
-18.3192
-18.2203
-17.9996
-18.5864
-18.7006
-18.2655
-19.5403
-19.4505
-19.4755
-19.9386
-21.3648
-24.7534
-24.3195
-23.3042
-22.1138
-21.5299
-22.9518
-22.622
-22.0837
-25.5903
-25.4587
-27.4206
-26.5518
-27.7074
-27.8244
-27.9486
-27.6446
5.54596
5.92713
6.58895
6.9302
3.6417
3.01882
3.33159
4.38182
4.28337
5.67193
5.39448
5.84896
5.26867
5.54039
4.88509
4.99272
6.48972
6.59672
7.34006
7.29571
8.01684
7.68693
6.15554
4.91566
4.23672
3.41041
4.65441
7.65336
-1.38435
0.278854
2.4197
4.09712
-1.23014
-28.6326
-26.4842
-2.975
-5.26836
-7.4573
-9.78706
-12.8663
-14.974
-14.4774
-21.3759
-26.0303
-23.6713
-17.8402
-18.4124
-21.0286
-32.0757
-30.0403
-35.152
-33.6906
-35.7705
-35.8088
-36.2892
-35.4074
-35.5225
-34.1927
-2.96198
-2.40507
-2.71757
-3.80319
-3.92586
-3.30231
-4.04327
-5.79646
-6.84311
-8.02905
-6.40483
-8.10715
-8.09592
-8.9566
-12.9798
-12.22
-13.7297
-13.8966
-16.788
-15.0264
-14.9024
-14.1799
-16.161
-17.611
-17.141
-18.3706
-18.5556
-18.3426
-19.1782
-18.3719
-19.5182
-20.0208
-20.0725
-18.8873
-20.6722
-20.0733
-20.5785
-21.7556
-22.7891
-25.8158
-25.0823
-21.8758
-21.9963
-22.9007
-22.4477
-26.0442
-25.8582
-27.1041
-26.277
-27.6017
-27.0239
-3.52464
-3.58805
5.33692
5.84529
6.47929
6.9426
7.66374
8.21514
5.93681
5.79183
6.73579
7.81359
8.42329
7.10388
6.82608
7.31728
6.60166
6.98227
8.0887
8.08857
8.91689
8.82801
9.67024
9.11297
9.63757
7.68166
6.26805
6.63227
10.3778
9.5568
1.01546
2.95391
5.67376
7.28267
1.34193
-0.674036
-2.81158
-32.5137
-28.7712
-5.77814
-8.82388
-12.189
-14.4488
-18.3939
-19.8283
-23.5837
-27.3932
-30.4519
-25.1541
-37.7242
-35.2124
-38.5723
-38.8506
-39.272
-38.1078
-39.1565
-38.3108
-4.27599
-4.00996
-5.15754
-5.22637
-6.07559
-5.42193
-6.2878
-7.71814
-8.60616
-9.71085
-8.44418
-9.70398
-13.7161
-11.0151
-12.1969
-13.133
-14.1218
-14.0967
-15.2849
-17.569
-16.067
-17.4425
-15.9046
-18.7198
-18.0557
-20.3242
-18.7624
-19.6465
-18.9583
-19.1355
-19.0221
-20.0185
-20.4159
-20.3669
-20.5309
-20.1745
-21.343
-21.1701
-21.8743
-22.166
-23.4163
-22.3349
-24.4359
-23.5142
-23.668
-25.2537
-24.9841
-25.6186
-25.0959
-3.96971
-4.14332
-4.9629
-4.97749
4.89101
5.49136
6.07464
6.64264
7.29588
7.9629
9.50866
8.81021
4.26659
4.88393
10.5927
10.2089
8.37197
8.90388
8.89816
8.56643
9.15002
10.082
9.89423
10.8811
10.6277
11.2734
10.4375
12.0967
12.5923
13.4433
12.5796
9.35119
10.3839
6.28147
4.27694
10.666
9.0948
5.24991
2.71947
-1.2451
3.60353
-4.17372
-6.8964
-37.6647
-33.9456
-11.215
-15.7192
-22.5878
-24.4366
-33.6071
-38.5543
-32.8651
-40.0554
-40.1599
-41.7189
-41.1774
-42.464
-41.1597
-5.82965
-6.27296
-6.93995
-7.10027
-8.14587
-7.57021
-9.01247
-9.86182
-10.8747
-11.9173
-10.8861
-11.9219
-14.8415
-13.8835
-13.1863
-14.1679
-17.7726
-14.9723
-15.3149
-16.9482
-16.4472
-18.2113
-17.5176
-17.8128
-17.8391
-19.3172
-18.8142
-19.9261
-20.1169
-19.7134
-19.7867
-19.5006
-19.4637
-20.4533
-20.6236
-20.6928
-21.0348
-20.462
-20.7017
-20.3002
-21.8394
-21.3494
-23.6237
-22.4724
-24.8206
-23.5628
-21.894
-25.1021
-24.6011
-4.25651
-4.48751
-5.19013
-5.41181
-6.17931
-6.38952
5.38566
6.07009
6.62473
7.36389
10.8194
9.01122
9.97641
8.1339
3.53245
4.12767
4.525
5.22388
2.72012
3.31084
1.86006
2.43017
12.5973
11.2473
10.8666
11.8517
11.1175
11.9154
12.3878
12.0626
13.2517
12.4735
12.78
12.0873
11.9025
14.0744
15.0236
15.265
16.5461
15.9716
13.7452
13.0908
10.0427
8.12276
14.4241
13.094
8.91802
6.52388
-0.33855
-5.23717
6.46844
2.59474
-8.62225
-14.0402
-45.493
-42.8895
-23.2686
-31.7557
-40.8878
-46.3096
-39.8157
-46.512
-44.4697
-46.5779
-46.246
-7.34991
-8.14243
-10.2956
-10.3691
-9.39445
-9.40587
-11.1455
-12.1636
-13.0792
-13.9295
-13.4558
-14.1669
-16.0184
-15.006
-14.7026
-15.2935
-18.0291
-17.8744
-16.9313
-18.3759
-16.9291
-17.4201
-18.6676
-18.9724
-18.2248
-19.456
-19.4387
-20.6803
-20.2695
-20.2718
-20.1972
-20.1401
-20.7638
-20.7287
-20.5582
-20.7428
-20.6373
-20.4165
-21.2072
-20.5916
-21.2826
-23.6548
-21.4739
-21.8076
-25.1751
-21.7162
-7.75919
-4.21383
-4.50963
-5.23153
-5.57653
-6.32613
-6.63557
-7.32637
-4.18832
-4.4753
-3.9907
-4.35276
-3.66253
-4.06636
0.999161
1.49227
0.142304
0.564608
-0.693562
-0.319988
-1.44521
-1.16721
-3.25862
-3.70185
-2.72529
-3.19152
-2.12817
-1.92244
-2.60442
5.69234
6.54648
7.17842
8.1537
10.0918
11.0196
8.97836
3.60311
4.2966
4.6735
5.43413
2.59114
3.24986
1.52331
2.12789
10.8861
13.5849
14.9985
13.7235
14.2236
13.8431
15.3961
14.7669
15.8244
14.9626
13.1421
13.3447
11.869
16.4373
16.8015
17.1484
18.4924
18.3645
20.0895
20.0902
17.7338
17.2835
14.4044
12.3412
18.9296
17.5939
12.653
9.80442
-10.5548
-1.33927
-8.99344
8.38512
2.89117
-20.5208
-24.8589
-47.9694
-50.3376
-35.6497
-66.024
-55.9176
-54.3648
-47.0294
-8.80468
-9.5731
-11.7071
-11.895
-12.0003
-10.7178
-11.4615
-13.5253
-13.9988
-15.1061
-15.3917
-15.009
-15.9806
-15.6782
-16.3766
-17.1862
-16.2463
-19.4227
-18.874
-17.727
-18.0844
-18.8927
-18.5419
-19.5073
-19.4553
-20.3975
-20.4058
-20.5739
-20.4706
-20.9515
-20.936
-20.854
-21.164
-20.8933
-20.9762
-20.9466
-20.6488
-21.0693
-20.6537
-20.4975
-24.7957
-20.7209
-9.10725
-7.58403
-8.39303
-5.12773
-5.53724
-6.2512
-6.64347
-7.31375
-4.90189
-5.29947
-4.61791
-5.06325
-4.20671
-4.68127
0.490187
1.00583
-0.481682
-0.0617962
-1.43848
-1.06226
-2.23589
-2.01426
-3.65913
-4.17191
-3.00609
-2.78907
-3.55092
5.86947
6.89499
7.45318
8.72938
9.54694
3.4765
4.2556
4.52078
5.42513
2.19428
2.91437
0.880271
1.54904
8.93769
11.2183
9.77524
17.2389
16.9909
16.443
18.2499
17.4589
18.0426
15.9734
14.3296
14.0974
12.2724
20.2417
18.9362
19.0988
21.9501
21.8839
23.9664
24.0699
22.1818
22.3319
19.1423
17.1109
24.1618
22.6574
17.4521
13.8705
-13.2019
-21.7798
-2.25061
-12.1035
11.1008
3.37582
-28.9587
-30.7697
-40.5906
-88.0957
-80.3688
-10.0494
-10.6887
-11.6254
-12.7158
-13.4406
-13.2072
-13.2447
-12.6658
-16.0334
-16.6181
-17.2018
-17.2176
-16.4483
-17.7422
-17.0524
-17.8942
-18.2165
-18.5565
-18.2505
-18.0682
-19.7488
-19.417
-18.8845
-19.0888
-19.7537
-19.458
-20.1561
-20.4339
-20.6423
-20.6631
-21.1702
-21.004
-21.0395
-21.1584
-21.3941
-21.3519
-21.4024
-21.3282
-20.0127
-21.5894
-20.8314
-30.2166
-9.04458
-9.89534
-7.73255
-8.62657
-5.97457
-6.44379
-7.29538
-5.77224
-6.28694
-5.3133
-5.89461
-4.68181
-5.26816
-0.256881
0.223622
-1.33297
-0.913976
-2.38883
-2.01818
-3.21922
-3.03609
-4.02492
-3.85175
-4.61148
5.77092
7.01198
7.6415
7.18973
3.003
3.87759
4.05542
5.09824
1.49536
2.27884
0.00988686
0.794461
9.28723
7.84052
11.6019
10.08
17.4608
17.4246
21.0669
20.3188
19.6558
18.73
21.3937
21.0739
12.4159
16.8182
15.2395
14.1312
23.3776
23.2563
25.8112
25.5316
27.0574
27.9211
26.5293
28.0151
24.0456
22.3473
28.7699
27.5443
23.6857
19.7724
21.5729
-18.857
-28.6679
14.0527
-6.01367
-17.6859
-32.4299
-28.5678
-13.8438
-10.2153
-11.0372
-11.7308
-12.7174
-13.5966
-15.8988
-14.4705
-15.3554
-17.6882
-17.2393
-18.7453
-18.8112
-17.2565
-18.572
-19.0893
-19.2027
-19.3564
-18.9372
-19.2441
-19.4968
-19.3939
-19.3511
-20.2226
-20.0234
-19.7604
-19.839
-20.1589
-21.0468
-20.5756
-20.763
-21.093
-21.1077
-21.2587
-21.2513
-21.0583
-21.1735
-21.8582
-21.1548
-9.09782
-9.81628
-7.19865
-7.74014
-8.6382
-6.59882
-7.23834
-5.91437
-6.57186
-5.18191
-5.85411
-1.20345
-0.725093
-2.43313
-1.98625
-3.54266
-3.23916
-4.36928
-4.2276
-5.0566
7.1048
5.32771
6.21102
5.82704
2.31195
3.19706
4.16771
3.3822
0.712606
1.52908
-0.99861
-0.213824
9.06762
7.08369
5.74598
11.3909
9.63982
17.9159
20.6902
19.5939
20.4598
24.9507
23.5946
24.7895
22.6733
22.9489
14.9554
12.4511
17.6635
16.3103
19.2569
27.6157
27.1459
30.8651
33.3156
30.4056
31.1767
31.7832
32.4786
33.4587
28.7871
29.7446
29.9143
25.5524
27.1663
25.8583
21.443
-21.5792
-39.7415
-36.1983
-15.8405
-10.2798
-14.3901
-14.8856
-11.3051
-11.5932
-12.444
-12.9815
-13.6725
-14.3131
-16.1823
-15.9587
-17.5461
-17.2529
-19.756
-19.7994
-18.7248
-18.9645
-20.1945
-20.0085
-19.3652
-19.3412
-20.0045
-20.0903
-20.1313
-20.6618
-20.5212
-20.3406
-20.5589
-20.9246
-20.8011
-21.1011
-21.0361
-21.0022
-20.9779
-21.0237
-21.06
-10.2807
-8.00858
-8.60072
-9.36116
-9.66482
-7.3063
-8.02465
-6.5066
-7.21048
-5.64957
-6.39224