/*--------------------------------*- C++ -*----------------------------------*\
  =========                 |
  \\      /  F ield         | OpenFOAM: The Open Source CFD Toolbox
   \\    /   O peration     | Website:  https://openfoam.org
    \\  /    A nd           | Version:  8
     \\/     M anipulation  |
\*---------------------------------------------------------------------------*/
FoamFile
{
    version     2.0;
    format      ascii;
    class       surfaceScalarField;
    location    "13000";
    object      phi;
}
// * * * * * * * * * * * * * * * * * * * * * * * * * * * * * * * * * * * * * //

dimensions      [0 3 -1 0 0 0 0];

internalField   nonuniform List<scalar> 
6926
(
-1.05308
0.0710305
-0.652857
-0.575153
0.174931
-0.941648
0.0740225
-0.11292
-0.539937
0.0688488
-0.756922
-0.752278
-0.0144386
-0.635251
-0.0481787
0.234424
-1.05805
-0.0648821
0.013168
-0.583537
0.177766
-0.717704
-0.644037
0.466534
-0.586708
0.133342
0.0251472
-0.66014
-0.828081
-0.244412
-0.409726
-0.0679182
0.0526745
-0.568293
0.156254
-0.873957
-0.555702
-0.534205
0.000171138
-0.533756
0.257372
-0.680506
-0.165025
-0.767876
-0.57277
-0.794975
-0.217313
-0.210007
0.0233044
-0.38159
-0.191513
-0.574196
-0.122765
-0.751193
-0.896195
0.12969
-0.131169
-0.592822
0.119814
-0.423187
-0.812396
0.0723854
-0.511072
0.000171877
-0.528537
-0.005048
-0.53411
-0.00349284
-0.102482
-0.938838
-0.388219
0.252407
-0.436958
-0.563079
-0.0424529
-0.10126
-0.471844
-0.185245
-0.511715
0.0459095
-0.797102
-0.113066
-0.705417
0.225661
-1.06843
-0.00149941
0.0947428
-0.787324
-0.00262164
-0.533631
-0.788735
-0.00795639
-0.612508
0.000175768
-0.525005
-0.00335963
0.153228
-0.139928
-0.827724
-0.818035
-0.527905
-0.0112528
-0.534207
-0.0323652
-0.038387
-0.648044
-0.523781
0.0443703
-0.420776
-0.236312
-0.886582
-0.834037
0.0369351
0.000159572
-0.6994
-0.00617638
-0.867638
0.0248691
-0.983455
0.0335756
-0.727567
-0.256033
-0.533913
-0.0107255
-0.522746
-0.753593
-0.131761
-0.14349
-0.759403
-0.849007
0.000187147
-0.528043
0.0032135
-0.519904
-0.0113604
-0.174013
-0.682409
-0.389418
-0.61232
-0.528254
-0.0172059
-0.534173
-0.0219734
-0.0363952
-0.567278
-0.890082
0.056045
-0.223853
-0.625794
0.143547
-0.0273551
0.275693
-0.391885
-0.332064
-0.558019
0.359358
-0.547875
-0.0835478
0.000177125
-0.61603
0.840962
-0.470747
-0.453763
-0.0328525
-0.958586
-0.0773632
-0.642654
-0.375951
0.0707688
-0.422385
-0.0980927
-0.533891
-0.0226722
-0.521967
-0.00891511
-0.513654
0.584358
-0.592635
-0.0690857
-0.425329
-0.5122
-0.437887
0.252505
-0.292857
-0.349065
0.0160367
-0.522934
0.461579
-0.65956
-0.0258716
-0.387626
0.000197508
-0.54668
0.0188245
-0.510652
-0.00603869
-0.51625
-0.0233639
-0.132558
-0.586246
-0.209274
-0.535604
-0.532877
-0.0185015
-0.0516418
-0.53761
-0.301366
-0.0149851
0.288996
0.869893
-0.234842
0.300144
0.0080534
-0.0535823
-0.346356
-0.284695
-0.00861799
-0.129034
-0.472423
-0.687053
-0.0295156
0.000197843
-0.586712
0.121513
-0.621775
-0.575132
0.242882
-0.991438
-0.0208535
-0.551031
-0.0688964
-0.544593
0.0134374
-0.533915
-0.034868
-0.521695
-0.0225195
-0.508362
-0.00238091
-0.511075
0.191058
-0.687221
0.672159
-0.357303
-0.383941
-0.04035
-0.461781
0.0515087
-0.440924
0.000842213
-0.472268
0.0787544
-0.504954
-0.466579
0.107163
-0.41371
0.000212353
-0.580622
0.0341389
-0.529825
0.0379973
-0.524826
0.00253646
-0.528243
-0.0279984
0.0949342
-0.0988358
-0.531702
-0.542954
-0.542603
-0.0135088
0.359347
-0.406339
0.0320064
0.413502
-0.286752
-0.344299
-0.325624
-0.089333
0.20807
-0.895123
-0.551105
0.00945734
0.000227614
-0.596397
-0.00644613
-0.605872
-0.641763
0.0601853
-0.748556
-0.000269091
-0.537325
-0.00140931
-0.543452
-0.0429901
-0.525793
-0.0408313
-0.503383
-0.0173798
-0.493363
0.0130063
-0.523854
-0.188883
-0.497496
-0.494069
0.0511244
-0.0133593
-0.478689
-0.509493
-0.0243438
-0.461283
0.0344753
-0.540839
0.30676
-0.773591
0.000251525
0.000213698
-0.61063
0.0302206
-0.583767
0.088081
-0.111286
-0.375542
-0.457052
-0.0686547
-0.552052
-0.0185488
0.00471888
0.00261721
-0.539038
-0.551744
0.360358
-0.32869
0.000338388
0.000268256
-0.635157
-0.0347654
-0.418413
0.000390821
-0.325918
-0.00317773
-0.306061
-0.236257
-0.640766
-0.133745
-0.761378
0.00536281
0.000277181
-0.602037
0.00296433
-0.603473
-0.633403
-0.00539637
-0.688371
-0.0441525
-0.536163
-0.0384398
-0.549165
-0.0529979
-0.513627
-0.0641146
-0.456649
0.0143353
-0.494692
0.0282307
-0.551808
0.0543064
-0.5139
-0.467534
0.00717051
-0.514046
0.00966264
-0.481181
0.0131556
-0.464776
-0.0280949
-0.551184
-0.624779
0.0143627
-0.625071
0.000543987
-0.628612
0.0750652
-0.36302
-0.205318
-0.65048
-0.590314
-0.0303929
0.00383024
0.00332084
-0.546189
-0.566462
-0.618
-0.00680286
-0.605542
-0.0121193
-0.453631
0.000452536
-0.59075
-0.0144011
0.000514574
-0.457324
-0.0388526
-0.503465
-0.108637
-0.665874
-0.00799596
-0.753382
0.0117741
0.000327917
-0.614139
-0.0325894
-0.55911
-0.623944
-0.0420482
-0.693767
-0.0531085
-0.536052
-0.043247
-0.559027
-0.0973195
-0.480422
-0.368773
-0.0735403
0.0840412
-0.550503
0.0266136
-0.578093
-0.0180181
-0.523977
-0.472396
-0.00509744
0.00681957
-0.482903
-0.515823
0.00921993
-0.467177
-0.0294167
-0.565014
-0.63821
0.0239615
-0.630364
-0.00730202
-0.668039
0.0926241
-0.765181
-0.0304516
0.00622444
0.0039824
-0.556396
-0.590631
-0.619336
-0.0178314
-0.606078
-0.0253767
-0.574875
-0.0154227
-0.591
-0.0294791
-0.0118904
-0.56247
0.000578723
-0.496755
-0.0381544
-0.573948
-0.00804384
-0.665827
0.0780456
-0.831428
0.0925004
-0.707007
0.000367186
-0.031126
-0.435483
-0.359096
-0.295974
-0.735815
-0.0733246
-0.560047
-0.0497566
-0.582595
0.332893
-0.617625
-0.221069
-0.157893
-0.549501
0.000387544
0.0656666
-0.589556
-0.593878
0.0161518
-0.015657
-0.537737
-0.478833
0.00296056
-0.514801
-0.00158201
-0.478361
-0.00292146
-0.465837
-0.0296307
-0.58514
-0.659721
0.0156429
-0.638117
-0.0289055
-0.69171
0.0191529
0.00257428
-0.0149352
-0.544035
-0.618508
-0.61373
-0.0422188
-0.602416
-0.0366908
-0.570493
-0.0359298
-0.593476
-0.0384185
-0.0324983
-0.549885
-0.00215592
-0.559736
0.000635202
-0.535545
-0.00249443
-0.579497
0.0851708
-0.672952
-0.12691
-0.704518
0.492505
-0.395558
-0.25484
-0.302074
-0.665723
-0.366066
0.0226577
0.108155
-0.526371
-0.083067
-0.698049
-0.0594177
-0.606244
0.0557552
-0.607713
-0.527254
0.000410067
-0.600872
0.00738174
0.0274728
-0.600877
0.00891534
-0.49067
-0.558452
0.0251894
-0.0333394
-0.470211
-0.504547
-0.026795
-0.472382
-0.031595
-0.612963
0.0193083
-0.490354
0.414872
0.0561736
-0.699991
0.0239244
-0.625176
-0.103721
-0.0495375
-0.0104714
-0.484026
-0.648892
-0.600069
-0.0673256
-0.58223
-0.0545296
-0.555979
-0.0734268
-0.0246011
-0.596048
-0.0822995
-0.506178
-0.00588025
-0.546161
0.0103004
-0.569401
0.000694267
-0.538733
0.0367386
-0.531065
-0.532694
-0.292504
0.152247
0.00353749
-0.663142
-0.0224786
-0.682039
0.105472
-0.771195
0.562668
-0.709353
0.00179884
0.0448114
-0.572981
-0.525878
0.000423663
-0.0388873
-0.603406
-0.00156669
-0.643564
0.0299701
-0.610211
-0.601386
0.000924012
0.013751
-0.607246
0.0116404
-0.601687
-0.505825
0.061774
-0.0301356
-0.501849
-0.453244
-0.123232
-0.379286
-0.0680931
-0.546436
0.960473
-0.645464
-0.315009
-0.368036
0.541164
-0.153819
-0.562196
-0.296194
0.426271
-0.184481
0.173082
0.696718
0.319929
0.192338
0.292666
-0.058733
-0.322827
-0.614443
-0.947795
-0.474947
-0.576569
-0.688685
0.146413
-0.553686
-0.189529
0.00326126
-0.581549
-0.60556
-0.0639148
-0.316086
-0.371773
-0.00291983
-0.509139
0.0193018
-0.555162
-0.424451
0.135484
0.0237262
-0.592433
0.000750108
-0.502745
-0.439731
0.0609134
-0.490553
-0.195068
0.100155
-0.782194
0.0632701
-0.453667
-0.72155
-0.0606443
-0.00898781
-0.762208
-0.673529
-0.00521523
-0.072523
-0.495243
-0.531537
0.000443707
-0.599162
-0.00180001
0.0201535
-0.59359
-0.168
-0.455411
0.0259497
-0.622409
-0.60432
-0.00200185
0.0475947
-0.717375
-0.581462
-0.575681
-0.305454
-0.437183
-0.277253
1.01864
-0.0482193
0.373176
-0.50403
0.427087
-0.0704034
-0.551935
0.530858
-0.132743
-0.669087
-0.179042
-0.0184523
-0.703098
0.656844
-0.0177739
-0.657523
0.604485
0.0216253
-0.0438794
-0.58223
-0.0824137
0.779132
-0.410597
0.135584
0.467351
0.411033
0.0172172
0.397705
-0.0293516
-0.40193
-0.788194
-0.638695
0.208539
-0.430736
-0.397487
0.165329
-0.592804
0.0450653
-0.690529
-0.429444
0.179022
-0.174029
-0.0824014
0.238921
-0.472606
-0.457094
0.035915
-0.525752
0.045378
-0.576814
-0.364638
0.0603905
0.028705
-0.620388
-0.442625
0.000793954
0.520225
-0.362101
-0.0948542
-0.104287
0.682708
-0.0865082
-0.13306
0.595873
-0.00916274
-0.550786
0.574416
-0.00200517
0.0375098
-0.799717
-0.708543
0.142092
-0.261262
-0.376073
-0.389914
0.000468314
-0.598115
-0.000603984
-0.0101984
-0.595922
0.0799106
-0.647551
-0.812684
-0.611063
-0.013348
0.141868
-1.1365
-0.745047
0.984561
-0.10559
-0.188556
0.462203
-0.00174819
-0.611503
0.526927
-0.0481671
-0.727598
-0.0629475
-0.0407927
-0.660609
-0.74389
0.0495485
-0.0582201
-0.573559
0.00271208
0.637806
-0.00300249
-0.637515
-0.498525
0.0137547
-0.00183399
0.455431
0.792886
0.329876
0.0793231
0.410296
0.00462674
0.434989
-0.00213735
-0.207393
-0.939584
-0.787049
0.277339
-0.509497
0.0405986
-0.588338
0.0950531
-0.54666
-0.260172
0.0745563
-0.36661
-0.0675905
-0.0821529
0.111777
-0.502229
-0.503332
0.0567734
-0.537147
0.102098
-0.650207
-0.383041
0.000805892
0.0130721
-0.632666
0.423707
-0.466709
-0.051852
-0.0471905
-0.547128
-0.0526407
-0.0377622
0.566588
-0.00133435
0.637963
-0.00216204
0.11615
-0.915867
-0.853655
-0.0495994
-0.571662
0.766504
-0.66963
-0.0974268
0.000552068
0.000518224
-0.595947
-0.00169955
0.00124213
-0.597768
-0.243689
-0.426551
0.000610634
0.707353
-0.416077
-0.340876
0.0464545
-0.125529
-0.6407
-0.786949
-0.475077
-0.0433889
1.01381
0.84137
-0.0610598
-0.0747832
0.550939
-0.0257602
-0.633538
0.526807
0.0585635
-0.750204
0.0537195
0.640016
-0.639906
-0.00311202
-0.895643
0.151753
-0.697959
-0.197685
-0.567076
0.0622618
-0.269416
-0.366404
0.692617
0.10027
-0.00534196
0.003277
-0.00335767
-0.637434
-0.432986
0.639953
0.145354
0.453851
0.0357679
0.442162
-0.00254654
0.580507
-0.0317048
-0.136965
-0.170048
-0.632572
-0.646675
0.123002
-0.5919
0.0769528
-0.570237
0.0872046
-0.522088
-0.309243
0.00075891
-0.37749
0.000655868
-0.0673781
0.0745858
-0.509437
-0.513937
0.0737342
-0.508783
0.00130491
-0.63844
-0.63526
0.00340013
0.425137
-0.477159
0.000169503
0.000457208
-0.529565
-0.000234264
-0.000739431
0.637923
-0.00129476
0.639813
-0.0019597
0.223785
-1.13965
0.727297
-0.272302
-0.698684
-0.0174116
0.163616
-0.562281
-0.587832
-0.588819
-0.00660956
-0.590813
0.00254632
0.00496853
-0.604436
-0.699533
0.000680042
0.0561344
-0.646337
-0.673595
-0.283401
0.0894964
-0.538662
-0.22443
0.399851
-0.577111
-0.715925
0.896987
-0.0131855
-0.0388363
0.425006
0.510817
0.559343
0.454466
0.822653
-0.026003
-0.00233442
0.544944
-0.0438974
-0.609179
0.526645
0.141098
-0.910895
0.355435
-0.638831
-0.00443279
0.47311
0.156672
-0.632894
-0.590843
-0.245649
-0.4837
-0.304828
0.0128613
-0.624914
-0.707542
0.2185
0.0326809
0.0036563
-0.00154989
-0.639541
-0.416469
0.542554
0.0566509
0.480882
-0.00295228
0.611599
-0.0336386
0.569846
-0.0566066
-0.0315749
-0.5115
-0.555247
-0.102571
0.0483221
-0.484414
0.0553646
-0.570312
0.0635126
-0.546545
0.0692802
-0.516783
-0.636073
0.00157144
-0.636546
0.00112886
-0.0685715
0.0673341
-0.5082
-0.508774
0.00939429
-0.516872
-0.636495
0.00145477
-0.636981
0.000892779
-0.637375
0.00056299
-0.637711
0.000101934
-0.000527164
0.639435
-0.000915836
0.421406
0.049744
-0.39077
0.386644
0.160799
-0.191983
-0.947669
-0.0519126
-0.838754
-0.0417826
0.135336
-0.655834
-0.624646
-0.581785
-0.0292602
-0.533327
-0.0459126
0.045015
-0.522207
-0.752133
0.000687655
-0.484452
-0.161205
0.323693
-0.765469
-0.675634
-0.424204
-0.475859
0.85995
0.0127645
0.415481
0.405632
0.265074
0.575413
-0.508712
1.06806
0.45657
0.831368
-0.000401305
-0.0818607
0.534536
-0.051789
-0.519311
0.526402
0.134007
0.130855
-0.29473
-0.634962
-0.00541833
-0.542925
-0.094401
0.276525
-0.179182
-0.488113
0.519705
0.0555296
-0.433377
0.129316
-0.320853
0.00390675
0.0105217
-0.653969
-0.283246
0.540899
-0.00336584
0.627562
-0.0189148
0.640158
-0.103951
0.538644
-0.0607146
0.0663613
-0.593136
-0.00806641
-0.455112
-0.507949
-0.0389184
0.0200468
-0.465542
0.0390181
-0.545818
0.0533215
-0.530587
0.0615397
-0.510988
-0.636498
0.00157438
-0.636967
0.00159842
0.00968502
-0.509065
-0.00287145
-0.495643
-0.532366
0.0169482
-0.637539
0.00146427
-0.638187
0.00121188
-0.638845
0.000759815
6.20437e-05
0.412484
0.00800599
0.389093
0.0472947
-0.241369
0.140903
0.261265
0.221552
-0.186397
-0.0411853
-0.906484
-0.0344818
-0.845458
0.0117435
0.0683241
-0.735902
-0.642162
-0.376223
-0.311851
0.115616
-0.446825
-0.315354
0.0936337
-0.300487
-0.787351
0.00073537
-0.443282
-0.0404822
-0.102716
-0.373843
-0.0768788
-0.620266
-0.486376
-0.17765
1.04812
0.734724
0.333331
0.290065
-0.272849
0.388416
0.0702105
0.484929
0.133349
0.898635
0.820535
0.0364136
0.726612
0.0120625
0.525956
-0.0513432
-0.497912
0.52611
0.105808
-0.437326
0.0702693
-0.00544464
-0.618244
-0.00619679
0.297069
-0.104369
-0.371882
-0.527854
-0.02049
-0.0989278
-0.483586
0.00401556
0.0483344
-0.706319
0.600084
-0.00365474
0.645976
-0.0217802
0.625288
-0.00404471
0.508069
-0.0733746
0.520726
-0.055484
-0.093422
-0.538633
-0.00725413
-0.427811
-0.476185
-0.0256202
0.00965003
-0.449572
0.0321175
-0.524614
0.0488669
-0.517914
-0.0168116
-0.497048
0.542548
-0.513808
-0.0271416
0.0117566
0.0242077
-0.516324
-0.00451359
-0.466922
-0.477944
-0.0343991
-0.447588
-0.0291449
0.424792
-0.0122457
-0.022036
0.390891
0.00620764
0.11482
-0.163825
0.189909
0.423379
0.225027
-0.1673
0.240984
-0.130312
0.0418683
-0.948352
0.0355853
-0.839175
-0.752517
0.000752026
-0.271671
0.0877028
-0.551934
-0.467906
0.101015
-0.454206
0.00999779
-0.413201
-0.430826
-0.01172
0.00881953
-0.423145
0.0317429
-0.564306
-0.548055
-0.110581
0.789901
0.187906
0.58737
0.624716
0.110008
-0.468176
0.563637
0.23787
-0.0251289
0.483755
0.0814392
0.536839
-0.051152
0.481611
-0.804699
0.715487
0.101275
0.0894345
0.521221
-0.0464538
-0.509048
0.52577
0.0890867
-0.584187
0.145408
0.125855
-0.563209
-0.00670014
0.273611
-0.322498
-0.0554818
-0.565096
0.0310452
-0.0593218
-0.411488
-0.48432
-0.0197555
-0.711344
0.200876
-0.195851
-0.0690223
-0.35552
-0.00681387
0.608355
-0.00484694
0.530406
-0.0263821
0.507521
-0.06017
-0.0490561
0.514793
-0.0347691
-0.529484
-0.0088193
-0.409342
-0.452887
-0.022952
0.00632866
-0.432948
0.0306688
-0.506416
-0.0140575
-0.520668
-0.464143
-0.0374187
0.609107
-0.494712
-0.141537
0.104539
0.00420661
-0.36659
-0.457816
-0.0712944
-0.434359
-0.0526023
0.416124
-0.0374787
-0.0402707
0.297587
0.132
-0.159963
0.309249
0.0406225
0.211519
-0.146455
0.216048
-0.142364
0.230356
-0.087057
0.193168
-1.14152
0.0429463
-0.688953
-0.710301
0.000729798
-0.426439
-0.00363506
-0.122847
0.0875769
-0.516664
-0.489738
0.0645743
-0.508783
0.00118917
-0.405571
-0.423944
-0.0109202
0.0516267
-0.528356
-0.531198
-0.0130466
0.759815
0.424795
-0.107342
0.472448
0.055607
0.557094
0.0369009
0.525341
0.59958
0.0251361
0.555991
0.117654
-0.277573
0.422324
0.0931193
0.0382728
0.526922
-0.00172754
0.487414
0.286285
-0.082248
-0.0267356
0.626316
-0.82042
0.729093
0.192601
0.126845
0.0480113
0.796662
0.518281
-0.0389645
-0.400054
0.525436
-0.0362957
0.622534
0.232414
0.367889
-0.684681
0.112886
-0.357944
-0.0238765
-0.500013
0.0467382
-0.00700446
-0.424239
-0.544984
-0.00638668
-0.00565093
-0.54511
-0.146385
-0.0416071
0.510832
0.547487
-0.0219278
0.534119
-0.0529794
-0.0521513
0.506774
-0.0378555
-0.51458
-0.0100869
-0.392926
-0.432305
0.0258772
-0.0268754
-0.43195
-0.340159
-0.119777
0.00892942
-0.529402
-0.518093
-0.0399933
0.506744
-0.388755
-0.259525
-0.200005
0.633419
-0.318934
-0.367087
0.173369
-0.251056
0.511164
0.190194
0.151959
0.421278
-0.169136
0.219948
-0.150355
0.207912
-0.11992
-0.937465
-0.204056
0.305847
-0.731497
-0.263303
-0.405074
0.000620723
-0.425076
-0.000633997
-0.42439
-0.00318952
-0.0836674
0.0755868
-0.508583
-0.508831
-0.00262153
-0.504972
-0.41781
0.00131954
0.0558334
-0.508602
-0.51322
-0.870494
-0.0669707
-0.887644
0.0171499
0.0185352
0.633938
-0.00779661
0.535851
0.054677
0.539318
0.0368216
0.526792
0.552875
0.028252
0.477437
0.0625411
0.387912
-0.0085072
0.0400226
0.485172
0.407323
-0.00215679
-0.0497577
0.575897
0.684394
-0.0580784
0.746017
-0.061623
0.906465
-0.160448
0.362534
-0.343713
0.945397
0.0392681
0.68514
0.452858
0.945109
0.131908
0.683289
-0.516012
0.504262
-0.0298566
-0.0295406
0.525149
-0.193555
0.169377
0.748177
-0.518133
0.131005
-0.373097
0.00814914
-0.423192
0.0456913
0.545786
-0.00394966
-0.00571089
0.435864
-0.19206
-0.390189
-0.301281
0.219012
0.0471356
-0.042146
0.499272
0.505816
0.560937
-0.0487466
-0.085534
0.539329
0.0313621
-0.520065
0.0241093
-0.447485
-0.395692
0.014732
-0.0348079
-0.411874
-0.511258
-0.126612
0.00338017
-0.572776
0.47158
-0.557736
-0.239682
0.53853
-0.309738
-0.0385977
0.323401
0.25613
-0.14459
0.213823
-0.163011
0.207228
-0.149671
-0.839779
-0.0957733
-0.668837
0.000459885
-0.424755
0.000300613
-0.42466
-0.000364016
-0.422411
0.00141117
0.012237
-0.0265649
-0.494255
-0.499215
-0.508327
0.00467431
0.0343725
-0.51623
-0.500795
0.523466
-0.325294
0.164361
-0.84851
-0.05824
-0.307894
0.0595932
0.566548
0.0523632
0.538165
0.0494726
0.526667
0.0893543
0.47746
0.48538
0.0203087
0.432915
0.0175378
0.401399
-0.00258338
0.0315221
0.451493
0.46714
-0.0315174
-0.207907
0.725726
-0.104375
0.363607
-0.407558
0.209589
-0.127325
0.667542
-0.00343838
-0.599657
-0.151613
-0.0925637
0.394547
0.682471
0.431327
0.416079
0.588437
0.154445
-0.0851496
0.685853
-0.521718
0.485481
0.00638002
-0.0261096
0.0297371
0.524885
0.486811
-0.0434762
-0.392373
0.100187
-0.367516
0.0401097
0.598807
-0.0418191
-0.202907
0.282831
-0.271984
-0.252481
0.234031
-0.321522
0.148162
-0.0990522
0.519334
-0.00848843
0.408708
0.575518
-0.0849359
0.0268897
-0.532223
0.0401966
-0.484301
-0.390303
-0.0453854
-0.0721965
-0.294292
0.671498
-0.541344
-0.369836
-0.02789
0.245347
-0.479682
0.162257
-0.458254
0.469769
-0.252237
0.260109
-0.190877
0.216128
-0.171911
-0.764791
0.000179771
-0.42475
0.000454548
-0.42492
0.000560753
-0.424245
0.00146994
-0.527626
0.0207104
0.00412231
-0.0117449
-0.486633
-0.490419
0.0523942
-0.541735
-0.460145
-0.436389
0.292856
-0.822837
-0.000193755
-0.0794832
0.144266
0.523654
0.539428
0.0612385
0.526399
0.140193
0.475828
0.0746776
0.434305
0.446754
0.00646978
0.421925
-0.00298789
0.0168811
0.432028
0.42062
-0.0053837
0.29718
0.019066
0.604568
0.0562188
-0.315519
0.0887192
-0.424693
-0.0181503
0.582167
0.018963
-0.523641
-0.052665
-0.0340382
0.241962
0.594954
0.572891
0.400101
0.33912
0.190864
0.524726
0.438072
0.0402507
-0.630725
0.378801
0.258305
-0.13195
0.47984
-0.144516
-0.0724187
-0.0529407
0.52546
-0.339799
0.0724698
0.58449
-0.0507906
0.242695
0.069811
-0.221892
0.212107
-0.262417
0.174926
-0.297164
0.105527
-0.660974
0.4131
0.197084
-0.226576
0.269712
-0.0875794
-0.0175833
-0.560025
0.146238
-0.658429
-0.316262
-0.137009
-0.473545
0.247652
-0.455232
0.268309
-0.278222
0.193661
-0.383606
0.233416
-0.225543
0.219784
-0.194533
-0.424824
0.000254014
-0.425177
0.000711037
-0.425132
0.00144729
-0.557161
0.0310049
-0.049646
-0.0710448
-0.365942
-0.519354
0.143594
-0.702912
-0.387596
-0.52922
-0.000760822
-0.424834
-0.00018361
-0.0745417
0.525777
0.526125
0.166619
0.499973
0.18199
0.368516
0.0308708
0.420315
0.431762
-0.00336679
0.00502315
0.424017
0.43006
-0.00368218
0.453018
-0.00389182
0.513131
-0.00389397
-0.439107
-0.00139377
-0.45517
-0.00208687
0.535807
-0.00371308
-0.505081
-0.00275468
-0.00331199
0.238915
0.524839
0.525094
-0.203386
0.596162
-0.288918
0.516722
0.0419089
0.0615745
0.418393
0.101698
-0.36528
0.479069
-0.189628
0.199509
0.515579
-0.358122
0.20604
-0.236653
0.186342
-0.257248
0.135009
-0.196076
0.251055
-0.245074
0.246082
-0.0873054
0.358953
-0.138312
-0.558722
-0.0242657
-0.386511
-0.1284
-0.369411
0.116002
-0.377572
0.228645
-0.27345
0.158327
-0.313288
0.217588
-0.223348
-0.425359
0.000436624
-0.425658
0.00123707
-0.556066
0.000352404
-0.0955171
-0.658021
-0.583867
-0.162853
-0.678371
-0.424766
-0.000829513
-0.425463
-7.99917e-05
0.179381
0.513363
0.51553
0.173888
0.508076
-0.00405324
0.40344
0.00594986
0.419388
0.421549
-0.000898322
0.421217
-0.00335065
0.421625
-0.00429965
0.422293
-0.0045615
-0.424527
-0.00163247
-0.424129
-0.00248536
0.422974
-0.00439424
-0.423599
-0.00328463
-0.00393678
0.208106
0.516498
0.52956
-0.250831
0.481713
-0.343872
0.277011
0.10877
0.136096
0.135958
0.444809
-0.127436
0.317141
-0.188442
0.198128
0.505893
-0.232951
0.202338
-0.227571
0.156666
-0.209342
0.227446
-0.216527
0.253267
-0.136054
0.278479
-0.21346
-0.473662
0.00441212
-0.274921
-0.0970606
-0.267938
0.0853571
-0.304602
0.192194
-0.248056
0.142194
-0.263288
-0.426015
0.000794003
-0.514761
-0.0400675
-0.105066
-0.715808
-0.68858
-0.492833
-0.398998
-0.425431
-0.000861577
-0.426238
0.00014269
0.179717
0.507533
0.506806
-0.0172702
0.521293
-0.00482368
0.414213
0.419989
-0.00149868
0.420849
-0.00421143
0.421778
-0.00522779
0.422671
-0.00545507
-0.425208
-0.00185537
-0.424792
-0.00290151
0.42349
-0.00521299
-0.424209
-0.00386724
-0.00465587
0.212534
0.502092
0.491262
0.133703
0.483968
-0.398461
0.379795
0.182443
-0.115351
0.296438
0.0171274
-0.00302421
0.49179
-0.204126
0.178893
-0.183723
0.207043
-0.161077
0.230621
-0.127631
0.245033
7.42189e-05
-6.04339e-05
6.30203e-06
-2.00477e-05
-0.190804
-0.379918
0.00412622
-0.193691
-0.0748483
-0.188964
0.0716886
-0.234096
9.48431e-05
0.000135627
-0.000156228
-0.510885
-0.00308224
-0.401814
-0.326834
-0.119653
-0.246268
-0.349887
-0.275347
-0.33714
-0.225985
-0.363817
-0.426254
-0.000845355
-0.499434
-0.0113083
0.0244384
0.499495
0.514701
-0.0224183
0.538888
0.418384
-0.00566891
0.420584
-0.00641197
0.422083
-0.00672628
0.423162
-0.00653487
-0.426022
-0.00208691
-0.425554
-0.00336945
0.424107
-0.00615727
-0.424913
-0.0045083
-0.00546251
0.0692578
0.555708
0.568326
0.156846
0.509565
-0.0614326
0.325877
-0.0864548
0.255263
-0.0258734
0.231742
0.362458
0.0351389
0.430777
-8.47678e-06
9.37808e-05
-0.000145695
-4.64996e-05
5.28504e-05
-3.83789e-08
-0.154088
-0.300679
0.00311612
-0.125118
-0.0618836
-0.123964
9.58139e-06
0.000540271
-0.000454995
-2.5317e-05
0.000114459
0.00130323
0.00363756
-0.00493118
0.164473
-0.569369
-0.408629
-0.303143
-0.322091
-0.247652
-0.315472
-0.207153
-0.310751
-0.494361
-0.00591867
-0.477791
-0.102887
0.043291
0.491342
0.535574
0.542821
-0.00960239
0.498825
0.0375845
0.451363
0.0407357
0.423188
0.0216396
-0.487131
-0.00931644
-0.451296
-0.0392047
0.41328
0.00375085
0.421772
-0.0139546
-0.034032
0.315115
0.397438
0.100711
0.347422
-0.0221337
0.261556
0.256946
0.289911
0.0331741
0.0986348
0.230649
0.110114
0.353837
-1.25119e-05
-8.00635e-05
8.41289e-05
9.78399e-05
4.8814e-05
-0.00010428
0.000106866
-2.59452e-06
-0.132817
-0.229745
-1.73781e-06
0.000516696
-7.72841e-05
8.74894e-05
0.00162971
0.000850956
-0.00117738
0.000976675
0.00265916
-0.423043
-0.288728
-0.284008
-0.285735
-0.240819
-0.281807
-0.182709
-0.260859
-0.489688
0.00597881
-0.175493
-0.350437
0.10641
0.495047
0.632381
0.485381
0.184585
0.432055
0.0940617
0.406676
0.0470186
-0.550908
0.0519037
-0.432514
-0.157599
0.397052
0.0133743
0.401729
-0.0186307
-0.064817
0.176548
0.321601
0.0620949
0.263193
0.135664
0.219917
0.190652
0.275807
0.128032
0.238281
0.207112
0.274757
5.48976e-05
-0.000555613
0.000488224
9.0149e-05
-7.23613e-05
0.000138335
1.73852e-05
-0.000126011
0.000126905
-3.46747e-06
-0.00160296
-0.00480866
0.0064666
0.00188298
0.000714757
-0.000968001
-7.54482e-06
0.00044697
-9.8524e-05
6.00209e-05
0.00123485
0.000592824
0.000749348
0.00190228
-0.303872
-0.268864
-0.270016
-0.256538
-0.217003
-0.247513
-0.166074
-0.313291
-0.510532
-0.40243
-0.0561983
0.427723
0.274436
0.416058
0.19625
0.394945
0.115175
0.378479
0.0634843
-0.29615
0.0732576
-0.179538
-0.364023
-0.0897265
0.36888
0.0229733
0.365382
-0.0151321
-0.063458
0.12542
0.258276
0.170352
0.240217
0.15382
0.247406
0.182686
0.225947
0.237734
0.219708
6.31343e-05
-0.000528586
0.000125607
-5.95888e-05
0.000146922
-2.6015e-06
-0.000128094
0.000128855
-4.19778e-06
-0.00211597
-0.000934779
0.0014479
-0.00122993
-0.00351555
0.00217119
0.000931451
-0.00121963
0.00143455
0.000515075
-8.40397e-06
0.000356859
-0.00010396
3.59135e-05
0.000950495
0.000391743
0.000577129
0.00131675
-0.303853
-0.235027
-0.24988
-0.223661
-0.42006
-0.197084
-0.355288
-0.12097
-0.212816
-0.0692149
0.311501
0.200669
0.346317
0.161434
0.3484
0.113092
0.341981
0.0699038
-0.291243
-0.10111
-0.303101
-0.0778679
0.33311
0.0318445
0.322838
-0.00486066
-0.0437208
0.162832
0.231205
0.182202
0.206577
0.223654
0.178257
-0.00259481
-0.000953875
0.00143259
5.02815e-05
-0.000453222
0.00013499
-4.76257e-05
0.000139292
-1.29966e-05
-0.000120413
0.000119924
-3.65627e-06
-0.00159215
-0.000572574
-0.000954328
-0.00251091
0.00240462
0.000682159
-0.000915585
0.0016678
0.00069825
0.00109943
0.000366111
-7.16623e-06
0.00026008
-0.000100626
1.6171e-05
0.000731923
0.000236978
0.000450363
0.000859228
-0.289878
-0.19503
-0.314111
-0.172851
-0.283405
-0.151677
-0.230477
-0.122143
0.268687
0.155636
0.297043
0.133078
0.306629
0.103506
0.305411
0.0711217
-0.242939
-0.0886485
-0.264765
-0.0560419
0.297551
0.0397042
0.284563
0.00812768
-0.0239226
-0.00335848
-0.00178993
0.00255366
-0.00192982
-0.000616179
3.37551e-05
-0.000351956
0.000129606
-3.78866e-05
0.000123465
-1.64684e-05
-0.000105524
0.000105305
-3.37604e-06
-0.00120542
-0.000321482
-0.000749053
-0.00172808
0.00260652
0.000959683
-0.00116153
0.00185363
0.000496334
0.00129424
0.000503521
0.000848983
0.000249075
-5.11693e-06
0.000164594
-9.25366e-05
3.23692e-06
0.000568522
0.000119076
0.000352812
0.000501302
-0.00444104
-0.00303799
0.00412046
-0.00250835
-0.00121157
-0.00143233
-0.000389284
1.94881e-05
-0.000241785
0.000114588
-2.89188e-05
0.000101037
-1.21255e-05
-7.92742e-05
7.58984e-05
-0.000916885
-0.000153658
-0.000589666
-0.00111892
0.00256801
0.000145195
-0.000106714
0.00204688
0.000766484
0.00143318
0.000357356
0.00100282
0.000349713
0.000653626
0.000163753
-2.90468e-06
7.4993e-05
-7.60372e-05
0.000436875
3.54005e-05
0.000276832
0.000221567
-0.00574678
-0.00496626
0.0062722
-0.00340642
-0.00213983
-0.00186028
-0.000783825
-0.00107225
-0.000233911
9.67327e-06
-0.000136779
9.11985e-05
-1.8993e-05
6.3773e-05
-0.000696998
-4.65293e-05
-0.000466109
-0.000643138
0.000828886
-0.00662352
0.0083627
0.00203423
0.000157831
0.00160936
0.000590391
0.00111264
0.000247558
0.000779411
0.000224222
0.000503609
9.67247e-05
-1.04414e-06
0.000325722
-1.29645e-05
-0.00779918
-0.0118089
0.0138621
-0.00458684
-0.00378665
-0.00256866
-0.00143127
-0.00137004
-0.000486071
-0.000794154
-0.000136535
2.65457e-06
-4.81506e-05
4.47802e-05
-0.000528965
1.60112e-05
-0.000364052
-0.000276432
-0.000245796
-0.00288054
0.00395531
0.000583476
-0.00517271
0.00161855
0.000148581
0.0012744
0.000428654
0.000861981
0.000164737
0.000600773
0.000127487
0.000374561
4.75041e-05
0.000207557
-0.000220523
-0.00667664
0.00460671
-0.00573203
-0.00650115
-0.0098943
-0.00361051
-0.00274586
-0.00191008
-0.00089118
-0.00100749
-0.000274104
-0.000591189
-7.39798e-05
-3.37045e-06
-0.000384906
3.64492e-05
-0.000480782
-0.000164975
0.000399914
-0.000272115
-0.00202493
0.000392601
-0.00394666
0.00128744
0.000135544
0.00100586
0.000285147
0.000669725
9.54475e-05
0.000453829
4.87924e-05
0.000255063
-0.00638734
-0.000642325
0.000352245
-0.00558875
0.0036895
-0.00542954
-0.00807489
-0.00282165
-0.001835
-0.0013838
-0.000513438
-0.000728559
-0.000138598
-0.000429148
-2.93308e-05
-0.000243353
0.000279803
-0.000466524
4.82171e-05
-6.24593e-05
-0.000415046
-2.20283e-05
-0.000278929
-0.00135347
0.000248813
-0.00290801
0.00101986
0.0001212
0.000787708
0.000167688
0.000504277
4.4546e-05
0.000303854
-0.00466305
0.00809172
-0.00981682
-0.00540719
-0.000822432
-0.00466434
0.0029163
-0.00450289
-0.00639404
-0.00216756
-0.00105648
-0.000973828
-0.000266251
-0.000517473
-5.26024e-05
-0.000272688
-0.000282106
0.000728268
-0.000912678
-0.00040074
3.39161e-05
-0.000352116
5.12081e-05
-0.000271334
-0.000833294
0.000139827
-0.0020275
0.000806071
0.000102369
0.000605463
6.72184e-05
0.000348401
-0.00293282
0.00686779
-0.0085979
-0.0038785
0.00656072
-0.00455578
-0.0009241
-0.00387447
0.00228507
-0.00375022
-0.00480747
-0.00160377
-0.000433645
-0.000661664
-0.000119607
-0.000325285
2.43674e-06
0.00100983
-0.0012944
-0.000237759
0.000565312
-0.000340934
2.27016e-05
-0.000294465
7.43457e-05
-0.000253432
-0.00044045
5.4819e-05
-0.00127558
0.000640455
6.67066e-05
0.000415618
-0.00145642
0.00432138
-0.00579702
-0.0023615
0.00535192
-0.00319988
0.00519964
-0.00383823
-0.000959232
-0.00321905
0.00172086
-0.00312663
-0.00327989
-0.00110117
-3.30658e-06
-0.00044491
0.000294619
0.00103357
-0.00132578
1.98048e-06
0.000770103
-0.000198817
0.00042325
-0.000288371
1.66234e-05
-0.000242856
6.40078e-05
-0.000227337
-0.000158852
-2.51711e-05
-0.000609223
0.000482326
-3.30369e-06
0.004873
-0.00632622
-0.00119241
0.00315252
-0.0018914
0.00404737
-0.00265259
0.0040127
-0.00322531
-0.000917322
-0.00265963
0.00120995
-0.00262942
-0.0017452
-0.000448203
0.000486109
0.000761765
-0.000953291
0.000247404
0.000788148
1.57226e-06
0.000569695
-0.000165217
0.000300119
-0.000240492
1.40384e-05
-0.000198872
3.5907e-05
-0.000190971
6.30654e-06
-0.000126897
0.00140346
0.0047501
-0.00615728
-3.91127e-06
0.00368487
-0.000975147
0.00223647
-0.00150806
0.00290414
-0.00217355
0.00293753
-0.00274256
-0.000789532
-0.00214477
0.00065094
-0.00219368
0.000494408
6.3151e-06
-1.46697e-05
0.000417477
0.00059168
0.000206663
0.000583102
1.23738e-06
0.000403274
-0.000136571
0.000196419
-0.000198281
1.31197e-05
-0.000159514
4.89681e-06
-0.00012059
0.00278589
0.00405275
-0.00543578
0.00115492
0.00359083
-2.71594e-06
0.0027126
-0.000797525
0.00152627
-0.00119938
0.00195329
-0.00177986
0.0019447
-0.00234184
-0.00052481
-0.00154255
0.000254211
-0.000211714
0.000451916
0.000423921
-1.48533e-07
0.000354349
0.000443959
0.000171617
0.000412733
9.63957e-07
0.000265579