/*--------------------------------*- C++ -*----------------------------------*\
  =========                 |
  \\      /  F ield         | OpenFOAM: The Open Source CFD Toolbox
   \\    /   O peration     | Website:  https://openfoam.org
    \\  /    A nd           | Version:  8
     \\/     M anipulation  |
\*---------------------------------------------------------------------------*/
FoamFile
{
    version     2.0;
    format      ascii;
    class       volVectorField;
    location    "13000";
    object      U;
}
// * * * * * * * * * * * * * * * * * * * * * * * * * * * * * * * * * * * * * //

dimensions      [0 1 -1 0 0 0 0];

internalField   nonuniform List<vector> 
4109
(
(10.1197 0.000524291 0)
(10.1223 0.000554414 3.87804e-21)
(10.124 0.00250712 0)
(10.1218 -0.000216652 -8.35514e-21)
(10.1242 0.00150916 4.01789e-22)
(10.1269 0.00237451 6.68748e-23)
(10.1278 0.00251659 -2.46784e-22)
(10.1334 0.00401993 0)
(10.1288 0.00239391 0)
(10.123 0.000387565 -2.87643e-21)
(10.125 0.0012959 3.4976e-21)
(10.1338 0.00315003 1.53955e-21)
(10.1364 0.00798173 2.24858e-21)
(10.1368 0.00429933 -1.11556e-22)
(10.1346 0.00331774 2.37905e-21)
(10.13 0.00222742 -8.97594e-22)
(10.1243 0.00061703 5.53544e-22)
(10.1267 0.00160851 6.49034e-23)
(10.1356 0.00324071 0)
(10.1404 0.00370186 -3.23851e-21)
(10.159 0.00816942 1.84924e-21)
(10.1427 0.00842903 -5.07816e-21)
(10.1466 0.00601641 -5.76486e-22)
(10.1312 0.00229725 -2.24771e-21)
(10.1285 0.0017606 9.16657e-21)
(10.1256 0.000843226 3.102e-21)
(10.1329 -0.00211483 0)
(10.1362 -0.00227761 8.96461e-22)
(10.1404 -0.0021652 -6.49259e-23)
(10.136 0.00326609 0)
(10.1419 0.00324123 0)
(10.1465 0.00465157 3.92743e-21)
(10.2209 -1.45162e-05 -1.01497e-21)
(10.1507 0.0070573 -7.10598e-21)
(10.1489 0.00602711 0)
(10.132 0.00234461 -1.61852e-22)
(10.1279 0.00154352 -9.10685e-21)
(10.1266 0.000753456 -5.05373e-21)
(10.1327 -0.00216541 -1.43241e-21)
(10.1249 -0.0016132 0)
(10.1421 -0.00303168 -1.33809e-22)
(10.1392 -0.00332735 4.8943e-22)
(10.1418 -0.00892389 -1.50598e-22)
(10.1365 0.00334997 -2.27662e-21)
(10.1421 0.00324166 0)
(9.48074 0.0260982 7.07932e-22)
(10.135 -0.000366813 3.809e-22)
(10.1489 0.00467301 -1.41346e-22)
(10.1496 0.00403909 6.77398e-22)
(10.2167 -0.00104807 4.62843e-21)
(10.1535 0.00534623 4.26115e-21)
(10.1308 0.00203286 -1.33651e-22)
(10.1292 0.00185357 -8.84904e-21)
(10.1281 0.00102607 1.98797e-21)
(10.1329 -0.0024986 -9.37655e-22)
(10.1266 -0.00185983 0)
(10.119 -0.000356125 0)
(10.1416 -0.00526694 1.2485e-22)
(10.143 -0.00416492 1.53507e-22)
(10.1389 -0.00347039 0)
(10.2401 -0.0027583 -1.44505e-22)
(8.88599 0.0142881 0)
(10.1362 0.00331279 -7.776e-21)
(10.1427 0.00324409 0)
(10.1487 0.00440325 6.0793e-22)
(10.2461 -0.000856088 -3.86503e-22)
(9.74636 0.0281031 1.58286e-20)
(10.15 0.0037631 0)
(10.1508 0.00632551 -9.5822e-22)
(10.2301 -0.000410935 -5.83916e-22)
(10.1298 0.00127288 2.66501e-21)
(10.1309 0.00227154 5.90357e-21)
(10.1355 0.00388474 0)
(10.1319 0.00141305 1.2045e-20)
(10.1331 0.0022677 -1.79806e-20)
(10.1339 -0.00284299 9.45696e-22)
(10.1284 -0.00195079 0)
(10.1266 -0.00176024 0)
(10.1204 -0.000466367 0)
(10.2207 0.00676811 1.69562e-22)
(10.1468 -0.00463753 7.98511e-22)
(10.1416 -0.00485403 -7.33747e-22)
(10.1451 -0.00360148 8.74303e-23)
(10.1395 -0.00389147 0)
(10.3543 0.01862 1.2104e-21)
(10.258 1.34528e-05 0)
(9.37365 -0.0429292 0)
(9.21596 0.0310659 -3.08734e-20)
(8.84228 0.0202504 -1.05132e-21)
(10.1348 0.00273638 3.04114e-21)
(10.1371 0.00329999 7.77916e-21)
(10.1432 0.00334102 0)
(10.1492 0.00450297 -3.18919e-22)
(10.1506 0.00351905 -1.98885e-22)
(10.2875 -0.00495097 0)
(9.99272 0.0122865 0)
(10.1483 0.00595223 0)
(10.2206 0.000554371 3.09711e-22)
(10.1372 0.00394742 6.3464e-22)
(10.1343 0.00322465 -1.18774e-20)
(10.1318 0.00249206 1.35252e-20)
(10.1365 0.00384735 8.54402e-21)
(10.1383 0.0045229 5.4426e-21)
(10.1347 0.00274229 6.33647e-21)
(10.1342 0.00122943 2.47154e-21)
(10.1347 -0.00332815 3.952e-22)
(10.1305 -0.00263116 3.49707e-22)
(10.1263 -0.00154056 0)
(10.1212 -0.000624461 2.82416e-21)
(10.2091 0.00183153 1.55232e-22)
(10.3295 0.00917214 0)
(10.1451 -0.00536114 -3.19588e-22)
(10.1455 -0.00427875 -3.12938e-23)
(10.1454 -0.00402495 0)
(10.1399 -0.00420331 0)
(9.01876 -0.0380111 -1.43716e-20)
(10.1706 -0.0132037 -1.0801e-21)
(9.90987 -0.0362004 1.726e-20)
(9.56751 0.0395213 -7.2135e-21)
(9.04843 0.0114499 1.10076e-20)
(8.75679 -0.0031854 8.62043e-21)
(10.2989 0.00206969 1.37882e-22)
(10.1362 0.00331229 -1.3905e-20)
(10.1394 0.00391961 -2.40314e-21)
(10.1441 0.00368705 -7.68122e-22)
(10.1495 0.00479668 0)
(10.1514 0.00387796 6.33615e-22)
(10.1472 0.00612037 -2.02159e-21)
(10.0767 0.00441166 3.38585e-21)
(10.3091 -0.00161152 0)
(10.2078 0.000918014 2.35706e-22)
(10.1404 0.00522281 7.03907e-21)
(10.1373 0.00406431 -4.42116e-21)
(10.1387 0.00472766 -8.35671e-21)
(10.1409 0.00583283 5.17737e-22)
(10.1372 0.00155667 0)
(10.1375 0.00379995 -5.02394e-21)
(10.1355 -0.00386087 -7.72947e-22)
(10.1307 -0.0028127 0)
(10.1268 -0.00171221 1.06619e-21)
(10.1224 -0.000758734 -2.82388e-21)
(10.2107 -0.00125667 -2.37125e-23)
(10.3261 -0.00305264 0)
(10.1429 -0.00662433 0)
(10.1466 -0.00443224 -3.008e-22)
(10.1457 -0.00420278 1.50002e-22)
(10.1404 -0.00469341 0)
(9.13905 -0.0346225 -8.2309e-21)
(9.85908 -0.0391127 5.32149e-22)
(9.08638 0.00959373 0)
(9.64726 0.0186297 -3.79558e-21)
(8.76042 0.0225418 0)
(10.2683 -0.0012911 -1.28743e-22)
(10.1399 0.00439095 1.10869e-20)
(10.1395 0.00392001 2.40295e-21)
(10.145 0.00418441 7.30327e-22)
(10.1502 0.00562585 2.36702e-21)
(10.1514 0.00441474 1.11122e-21)
(10.1468 0.00697146 1.239e-21)
(10.2021 0.00308895 -3.94857e-23)
(10.1214 0.00212799 -3.46462e-24)
(10.3213 -0.00264517 -2.35525e-22)
(10.1441 0.0062039 1.97831e-21)
(10.1402 0.00452658 0)
(10.1416 0.00627511 -3.21449e-22)
(10.1449 0.00726931 -1.70698e-21)
(10.1426 0.00640052 -2.12562e-22)
(10.141 0.00538778 0)
(10.1408 0.00178263 0)
(10.1365 -0.00456996 2.96885e-22)
(10.132 -0.00341347 1.15511e-22)
(10.1281 -0.00208707 -2.3017e-21)
(10.1232 -0.000649351 -4.76644e-22)
(10.2068 -0.00457529 -1.96604e-23)
(10.3266 -0.00412967 0)
(10.1409 -0.00766837 6.15633e-22)
(10.1483 -0.00454963 -1.47123e-22)
(10.1457 -0.00488684 -5.9423e-22)
(10.1413 -0.00561037 -3.63649e-22)
(9.77439 -0.0296353 -5.55444e-22)
(8.88283 -0.0128299 0)
(9.7055 0.016475 4.05762e-24)
(9.0961 0.00601762 4.70603e-22)
(8.76181 0.0207209 1.0668e-22)
(10.286 0.00326028 1.77029e-22)
(10.1456 0.00444161 -2.5485e-23)
(10.1462 0.00485978 2.54766e-23)
(10.1519 0.00622064 -1.22758e-21)
(10.1479 0.00758773 -1.99831e-21)
(10.1549 0.00410882 -8.85992e-22)
(10.1906 0.00624297 1.06449e-21)
(10.1074 0.00499016 -2.27021e-22)
(10.3172 0.000780876 1.36814e-22)
(10.1469 0.00536106 -9.54131e-22)
(10.1477 0.00636525 4.99225e-22)
(10.146 0.00829824 -5.01079e-22)
(10.1487 0.00754829 -6.87751e-22)
(10.1477 0.00932736 4.97073e-22)
(10.1461 0.00770683 2.48885e-22)
(10.1421 0.00501468 1.8779e-21)
(10.1449 0.000844271 0)
(10.1378 -0.00529163 -6.32957e-22)
(10.1332 -0.00388086 3.06891e-22)
(10.1295 -0.00251152 1.97459e-21)
(10.1248 -0.000893554 3.73164e-22)
(10.1929 -0.00628056 -3.46131e-22)
(10.3171 -0.00337526 -5.87305e-22)
(10.1398 -0.00785673 3.87995e-22)
(10.1495 -0.00533519 2.14173e-23)
(10.1463 -0.00649642 8.68628e-22)
(10.1428 -0.00686402 0)
(9.76131 -0.0191541 -1.31035e-21)
(8.86916 -0.00636994 6.33305e-22)
(9.07552 -0.00155678 0)
(9.68094 0.0117896 5.66262e-23)
(8.75447 0.0197214 -7.36725e-22)
(10.313 0.0116692 1.94379e-22)
(10.1528 0.00532774 0)
(10.1531 0.00567 -9.3768e-22)
(10.1566 0.00420833 -3.0509e-21)
(10.1737 0.0130563 2.21713e-21)
(10.1067 0.00388882 1.55305e-24)
(10.3164 0.0024982 -4.71103e-22)
(10.1533 0.00704676 1.12096e-21)
(10.1536 0.00847892 2.09462e-21)
(10.1501 0.00887682 2.05912e-21)
(10.1543 0.0102003 -1.42997e-21)
(10.152 0.0101454 -1.04866e-21)
(10.1498 0.0104243 0)
(10.1473 0.00744078 -2.11459e-21)
(10.146 0.00574264 -2.15772e-21)
(10.1494 0.00083651 0)
(10.1392 -0.00591802 -2.90539e-21)
(10.1345 -0.00422913 7.60769e-21)
(10.1312 -0.00287896 3.37873e-21)
(10.1263 -0.000970243 -6.36993e-22)
(10.1769 -0.00776104 -2.49644e-22)
(10.3019 -0.00404618 1.59969e-22)
(10.1509 -0.00736137 -7.58872e-22)
(10.1405 -0.00800269 1.02731e-21)
(10.1407 -0.0063086 0)
(10.1483 -0.00888152 0)
(10.1446 -0.00788237 0)
(9.82311 -0.0166326 2.88329e-22)
(8.87944 -0.00896544 4.82922e-22)
(9.68285 0.00520614 5.30625e-23)
(9.07975 -0.00894141 6.57971e-23)
(8.76073 0.0212519 -6.45573e-23)
(10.3286 0.0174207 -4.85901e-22)
(10.1584 0.00308311 0)
(10.1566 0.00473788 4.97295e-22)
(10.1652 0.0165051 7.45434e-22)
(10.1063 0.00382114 -1.11443e-21)
(10.3181 0.00806084 5.79402e-22)
(10.1571 0.0068565 -3.40313e-22)
(10.1585 0.00753714 -2.72582e-22)
(10.1553 0.0119691 -4.01876e-22)
(10.1598 0.0100996 0)
(10.1567 0.0139852 0)
(10.1542 0.0113758 -3.23316e-22)
(10.1523 0.0113636 2.7328e-21)
(10.1505 0.00816526 -1.12801e-20)
(10.1503 0.0058613 0)
(10.1538 0.000958203 0)
(10.1372 -0.00502924 4.09759e-21)
(10.1343 -0.00404958 -5.55976e-21)
(10.1283 -0.0011111 2.36792e-21)
(10.1395 -0.00566723 4.10123e-21)
(10.1526 -0.0104297 1.87093e-21)
(10.279 -0.0050316 -3.31673e-21)
(10.1513 -0.00928941 -6.98073e-23)
(10.1429 -0.00689677 0)
(10.1463 -0.008539 0)
(10.1507 -0.0100352 -5.7438e-22)
(8.88511 -0.00586701 2.93725e-22)
(9.86048 -0.0142356 5.12192e-22)
(9.08965 -0.0249116 8.0735e-22)
(9.68729 -0.00845276 -7.78531e-22)
(8.7663 0.0185274 0)
(10.3381 0.0272664 1.05536e-21)
(10.0158 -0.017484 1.28204e-19)
(10.1675 0.0158626 0)
(10.1636 0.0099721 -2.37489e-22)
(10.1129 0.00561057 -1.49805e-20)
(10.3296 0.0065859 -4.2624e-21)
(10.1529 0.0130104 1.47774e-21)
(10.1558 0.0114623 -4.64034e-22)
(10.1612 0.0120497 2.90955e-21)
(10.154 0.0166783 4.60743e-22)
(10.1632 0.0145047 -8.08869e-23)
(10.1585 0.0158272 -1.12361e-22)
(10.1568 0.0125599 0)
(10.1552 0.0122779 -6.11387e-21)
(10.1543 0.00894807 2.28037e-20)
(10.1549 0.006326 0)
(10.1556 0.00430239 7.05898e-21)
(10.1572 -0.00064727 0)
(10.1289 -0.000618828 0)
(10.135 -0.00351887 2.4005e-21)
(10.1319 -0.00246726 -3.65235e-21)
(10.1405 -0.00555702 2.06541e-22)
(10.1444 -0.0071093 1.5977e-21)
(10.1386 -0.0145116 0)
(10.2596 -0.00886839 1.44093e-21)
(10.1558 -0.0112528 1.25178e-21)
(10.148 -0.00901264 6.01408e-22)
(10.1531 -0.0103936 0)
(9.88878 -0.00618503 1.22181e-21)
(8.8676 -0.000118053 -6.92384e-22)
(9.10585 -0.029799 4.08774e-20)
(9.74106 -0.0149922 -2.82113e-20)
(8.78123 0.0160326 3.20822e-20)
(10.3336 0.0299935 -1.02712e-21)
(10.0116 -0.00270796 -2.12289e-19)
(10.0142 -0.0198766 5.54179e-20)
(10.0108 -0.0138459 -6.23092e-20)
(10.022 -0.0211862 -8.25124e-20)
(10.0172 -0.0065153 1.88204e-19)
(10.028 -0.0266706 7.31123e-20)
(9.97294 0.0171526 2.77593e-20)
(10.3405 -0.0152604 1.95491e-20)
(10.2798 -0.0294681 -1.85266e-20)
(10.1918 -0.000115086 -1.50794e-21)
(10.2033 0.00181293 -5.93496e-21)
(10.158 0.0114326 -2.93158e-22)
(10.1574 0.0177928 0)
(10.1617 0.0209361 -1.70279e-21)
(10.1652 0.0160277 0)
(10.161 0.0176564 0)
(10.1612 0.00788934 4.40298e-20)
(10.1599 0.0137783 1.1152e-21)
(10.1588 0.0130658 1.90532e-20)
(10.1589 0.00966436 -1.91891e-20)
(10.1589 0.00368833 -6.82977e-21)
(10.1583 -0.00141411 0)
(10.1604 0.000790803 0)
(10.1565 -0.00255119 1.27356e-20)
(10.1319 -0.00168335 -5.35713e-22)
(10.1355 -0.00321107 -7.5176e-21)
(10.1426 -0.0059528 -4.80765e-21)
(10.1462 -0.00745558 -5.17449e-21)
(10.1497 -0.00935563 -7.53236e-22)
(10.1389 -0.0197948 0)
(10.2597 -0.0109545 -2.95807e-21)
(10.1589 -0.0122211 -1.12674e-21)
(10.1552 -0.0102463 -1.64664e-23)
(9.89172 0.000611146 7.65879e-21)
(8.76562 0.00650981 5.71081e-22)
(8.97735 0.0202598 2.6027e-20)
(10.3267 0.011344 9.24076e-22)
(10.0008 -0.00197631 -5.61887e-20)
(10.0042 -0.00162417 5.60712e-20)
(10.007 -0.00904348 0)
(10.0193 -0.02462 -2.26897e-20)
(10.0113 -0.0246269 8.53739e-20)
(10.0069 -0.0176253 7.2117e-20)
(10.1498 -0.00528523 0)
(10.1551 -0.0109789 7.12111e-21)
(10.1567 -0.0250554 5.7341e-21)
(10.0258 -0.00783268 -2.88637e-21)
(10.0314 -0.0193433 -1.90206e-20)
(10.0242 -0.0120515 4.78649e-20)
(10.0341 -0.0269426 -6.51032e-21)
(10.0258 -0.030448 2.76683e-20)
(9.5177 0.0553444 -6.07644e-20)
(10.3523 -0.0333532 -4.39301e-21)
(10.3281 0.00760311 2.70544e-20)
(10.273 -0.00105461 -9.82524e-21)
(10.1691 0.0134163 -1.72804e-22)
(10.1652 0.00724707 1.74828e-21)
(10.1565 0.0225325 -1.33282e-20)
(10.1694 0.0209692 0)
(10.1676 0.0183123 0)
(10.164 0.0197387 -1.10152e-21)
(10.1639 0.0102044 0)
(10.1635 0.0149987 0)
(10.1629 0.0135885 -6.51191e-21)
(10.1657 0.00202412 0)
(10.1645 0.00461455 -3.19154e-20)
(10.1608 -0.00498667 -7.69268e-20)
(10.1647 -0.00158571 5.20167e-20)
(10.1657 -0.0165251 0)
(10.1735 -0.0339459 1.61316e-20)
(10.1346 -0.00158288 7.96157e-21)
(10.1383 -0.00393496 -4.08941e-22)
(10.1453 -0.0066529 -1.99963e-20)
(10.148 -0.00788934 1.12954e-20)
(10.1514 -0.00974233 2.12972e-22)
(10.1569 -0.0104437 -1.63149e-22)
(10.1441 -0.0206471 8.44654e-22)
(10.2491 -0.0144521 1.0601e-21)
(10.1609 -0.0117174 -4.7343e-22)
(9.9329 -0.0197004 -1.18338e-20)
(8.57839 0.00820334 1.82565e-20)
(10.0004 -0.00286526 -1.16444e-19)
(10.003 -0.00951532 4.94064e-20)
(10.0163 -0.0308109 -2.80316e-20)
(10.0093 -0.0286157 1.95717e-21)
(10.0052 -0.0203413 -1.37681e-19)
(10.1443 -0.0173722 -1.29364e-20)
(10.1378 -0.0078369 1.10838e-20)
(10.1448 -0.0341343 0)
(10.1839 -0.0562242 -3.06238e-20)
(10.1624 -0.0451579 -1.68211e-20)
(10.0401 -0.0164012 1.67925e-22)
(10.0392 -0.0109812 -2.6945e-20)
(10.0414 -0.0308655 -1.91594e-22)
(10.0335 -0.0353866 -6.28816e-21)
(10.0237 -0.037673 -2.91147e-20)
(8.65197 0.0442882 -4.48732e-20)
(9.83378 0.103529 1.29705e-20)
(10.3641 0.0416146 -1.30679e-20)
(10.3117 0.0226772 1.03966e-21)
(10.1779 0.0168191 4.74873e-21)
(10.1679 0.0100072 2.83541e-21)
(10.1714 0.00907162 9.34564e-21)
(10.1591 0.0225968 -2.56111e-21)
(10.17 0.0231654 2.82438e-21)
(10.1703 0.0206171 0)
(10.1676 0.0223323 -9.10298e-21)
(10.1674 0.0134748 -1.04498e-20)
(10.1678 0.0161213 0)
(10.1736 0.00194346 -2.25526e-20)
(10.1722 0.00573007 -1.12644e-20)
(10.1733 -0.00329961 4.96808e-20)
(10.1709 -0.00945895 -1.85369e-20)
(10.1811 -0.0231471 -1.13906e-20)
(10.1951 -0.0411516 4.78706e-20)
(10.1378 -0.00203552 -4.80641e-21)
(10.1416 -0.00475218 8.92113e-21)
(10.1632 -0.0128257 2.23137e-21)
(10.1506 -0.00864853 6.59272e-21)
(10.1495 -0.00850792 0)
(10.153 -0.0103057 1.78215e-21)
(10.1584 -0.0107083 9.93872e-23)
(10.1539 -0.0103399 0)
(10.1536 -0.0178198 -1.83273e-21)
(10.1495 -0.0180191 -1.55504e-21)
(10.2878 -0.00592475 1.35421e-21)
(10.0371 -0.0552174 3.24038e-20)
(10.0008 0.00226643 -1.47036e-20)
(10.0003 -0.00386096 0)
(10.0021 -0.012046 3.14049e-20)
(10.0143 -0.0363962 -6.99853e-21)
(10.0068 -0.0331688 0)
(10.0036 -0.0233768 1.04668e-20)
(10.2207 -0.0690896 -5.43933e-20)
(10.1206 -0.0105229 5.55012e-23)
(10.1008 -0.0129397 0)
(10.1302 -0.0240824 -6.00048e-21)
(10.1345 -0.0432589 -1.15143e-21)
(10.0575 -0.010083 0)
(10.0784 -0.00945778 0)
(10.1675 -0.0701208 1.45813e-20)
(10.148 -0.0551941 -2.94398e-22)
(10.051 -0.0260754 1.03776e-19)
(10.0433 -0.0388997 4.96557e-20)
(10.0332 -0.0448644 1.26967e-20)
(10.0211 -0.0446423 0)
(8.45733 -0.00196066 3.56683e-20)
(9.41747 0.108958 0)
(10.2836 0.0579935 1.03756e-21)
(10.3183 0.025191 -1.20763e-21)
(10.1959 0.0181066 6.33965e-21)
(10.1722 0.0124987 1.20636e-20)
(10.177 0.0102281 0)
(10.1604 0.0241016 3.90802e-21)
(10.1718 0.0254218 -8.26298e-22)
(10.1732 0.0234592 -3.56553e-21)
(10.1721 0.0251142 -1.69269e-21)
(10.1729 0.0168229 2.04156e-22)
(10.1839 0.00153049 -1.30373e-20)
(10.1807 0.00643208 1.46236e-20)
(10.1855 -0.0051625 1.35487e-20)
(10.1849 -0.0134598 -1.22862e-20)
(10.201 -0.0269559 -4.79304e-20)
(10.228 -0.0455803 3.40885e-24)
(10.1416 -0.00257649 -2.67101e-21)
(10.151 -0.00717399 -2.94483e-20)
(10.1463 -0.00598815 1.84836e-20)
(10.1726 -0.0182974 -2.10514e-21)
(10.1648 -0.0129058 -6.38144e-22)
(10.1547 -0.0110914 -1.69075e-21)
(10.1565 -0.0118349 0)
(10.1597 -0.0112399 1.30347e-21)
(10.1569 -0.0120242 8.48947e-21)
(10.1589 -0.0128622 0)
(9.66486 -0.0878011 -8.2113e-20)
(9.38428 -0.0905878 1.47272e-20)
(10.1402 -0.00816744 0)
(10.3265 0.00276868 5.35383e-21)
(10.0004 0.00279355 1.43916e-19)
(10.0022 0.0084452 -1.37242e-19)
(10.0046 0.0010377 0)
(10.0003 -0.00457056 -1.95995e-20)
(10.0014 -0.0137976 7.17956e-20)
(10.0115 -0.0425344 5.9168e-21)
(10.0038 -0.0352197 0)
(10.0013 -0.024538 -1.65422e-19)
(10.2051 -0.0912941 5.43673e-20)
(10.2663 -0.0674001 2.28055e-20)
(10.1189 -0.0326517 -2.70786e-21)
(10.1015 -0.0267132 0)
(10.1186 -0.0514655 4.48691e-21)
(10.082 -0.0232789 0)
(10.065 -0.0273006 -8.67213e-20)
(10.147 -0.0803467 1.58637e-20)
(10.1315 -0.0602033 4.18926e-21)
(10.0554 -0.040226 -2.00263e-20)
(10.0446 -0.0518568 -1.16819e-20)
(10.0301 -0.0533 4.03047e-20)
(10.0165 -0.0520265 -3.82582e-20)
(8.16081 -0.0231647 5.05686e-21)
(9.11406 0.076934 3.31988e-21)
(9.05078 -0.0677677 6.77784e-21)
(10.2357 0.0382707 -2.33248e-21)
(10.3408 0.0272955 2.159e-21)
(10.2081 0.022558 -2.42153e-21)
(10.1787 0.0164836 0)
(10.1848 0.0145561 -1.95183e-20)
(10.1621 0.0273331 -4.62082e-21)
(10.1736 0.0282452 7.7108e-21)
(10.1779 0.0266325 1.51719e-21)
(10.1772 0.0273319 1.11747e-20)
(10.1908 0.0105981 1.95118e-20)
(10.1962 0.00463786 0)
(10.2005 -0.00371225 0)
(10.2024 -0.0143307 0)
(10.2291 -0.0241486 0)
(10.2668 -0.0398309 -4.70904e-20)
(10.3057 -0.0633899 -7.36555e-20)
(10.1458 -0.0030434 2.67088e-21)
(10.1519 -0.00552313 8.23412e-21)
(10.1666 -0.0137511 2.30783e-21)
(10.1658 -0.0139377 1.75335e-22)
(10.1611 -0.0122734 -1.56577e-21)
(10.1627 -0.0135253 -1.82544e-21)
(10.165 -0.0149107 0)
(10.1586 -0.0117225 0)
(10.1617 -0.0138057 0)
(10.1705 -0.00446784 0)
(10.3662 -0.0137471 3.99244e-20)
(10.2982 -0.0295134 -3.02789e-20)
(10.0006 0.00484182 3.59099e-20)
(10.0023 0.0108639 -2.80901e-20)
(10.0049 0.0140308 -6.99187e-20)
(10.0137 0.00793747 0)
(10.0073 0.0109466 0)
(9.99993 -0.00490115 5.48455e-21)
(10.001 -0.0154272 4.30297e-20)
(10.0078 -0.0459641 -1.27539e-21)
(10.0002 -0.0396329 -2.96302e-20)
(9.99941 -0.0301412 2.68042e-19)
(10.1823 -0.107157 1.5045e-22)
(10.2517 -0.0954118 4.59826e-20)
(10.3318 -0.104481 -7.23302e-20)
(10.0714 -0.0447459 -6.48897e-20)
(10.1023 -0.0508243 2.04331e-20)
(10.0892 -0.0406185 2.96566e-20)
(10.125 -0.0862215 0)
(10.1146 -0.063112 -1.94561e-21)
(10.0586 -0.0588238 -1.60951e-20)
(10.0414 -0.0623329 -4.43465e-20)
(10.0231 -0.0623619 2.24772e-20)
(10.0111 -0.0568736 -1.42088e-20)
(10.3284 -0.0677793 0)
(8.03798 -0.0144635 -4.75298e-21)
(8.96732 0.0594011 2.26129e-21)
(8.85636 -0.0372731 -5.15659e-21)
(10.2085 0.0304495 7.21335e-22)
(10.3522 0.0291105 -7.24683e-22)
(10.2156 0.0308039 0)
(10.1841 0.0284747 0)
(10.1922 0.0277724 2.00631e-20)
(10.1773 0.0321381 0)
(10.1639 0.0352933 -8.01405e-23)
(10.1836 0.0299109 -1.47296e-21)
(10.201 0.0245119 -2.00514e-20)
(10.2101 0.018236 0)
(10.2187 0.00815283 0)
(10.2256 -0.00593421 0)
(10.2611 -0.0151232 0)
(10.2944 -0.0339348 3.68186e-20)
(10.3372 -0.048591 2.15114e-19)
(10.3657 -0.0675897 1.72874e-20)
(10.1492 -0.00212726 0)
(10.1556 -0.005817 -8.33543e-21)
(10.1675 -0.0131781 0)
(10.1666 -0.0146847 5.8862e-21)
(10.1676 -0.0170102 -1.54064e-20)
(10.168 -0.0192291 4.70836e-21)
(10.1679 -0.0166703 -1.60946e-20)
(10.1626 -0.0123264 2.59317e-21)
(10.1643 -0.0135595 0)
(10.167 -0.0177261 2.37632e-20)
(10.1791 -0.0113271 0)
(10.2687 0.0176659 1.65622e-20)
(10.0006 0.00602311 -6.63663e-20)
(10.024 0.0079227 2.02477e-20)
(10.0034 0.0164444 0)
(10.0063 0.0204351 -1.19886e-21)
(10.0114 0.014734 5.69481e-20)
(9.99982 -0.00455083 0)
(9.99906 -0.0147625 -4.78933e-20)
(10.0024 -0.050189 3.29368e-20)
(9.99526 -0.0388635 0)
(9.99592 -0.0297385 0)
(9.99822 -0.0211595 -1.81797e-21)
(10.1556 -0.117075 -1.85819e-21)
(10.3757 -0.143244 1.01197e-19)
(10.2208 -0.121511 -2.32105e-21)
(10.2941 -0.132133 -7.43175e-20)
(10.105 -0.0876873 5.36399e-20)
(10.0759 -0.0604686 0)
(10.0949 -0.0660249 -2.41743e-20)
(10.0558 -0.0714693 0)
(10.0311 -0.0740434 4.97516e-21)
(10.0152 -0.0694442 4.29461e-20)
(10.0038 -0.0620494 -1.71479e-20)
(10.2778 -0.0441477 0)
(7.97168 -0.014283 2.8206e-21)
(8.87354 0.0583639 -3.67477e-21)
(8.77233 -0.0338085 -7.59409e-22)
(10.1707 0.0248104 9.35046e-22)
(10.3547 0.0321647 1.25991e-21)
(10.2176 0.045512 6.10047e-22)
(10.2025 0.0342564 2.18863e-20)
(10.1921 0.0326825 -1.06443e-20)
(10.184 0.0375201 1.28424e-21)
(10.1676 0.0486863 -1.38124e-21)
(10.2142 0.0323621 -2.88766e-20)
(10.2268 0.0271638 1.7141e-20)
(10.2517 0.0045965 0)
(10.2397 0.0185363 0)
(10.2846 -0.00718987 -1.31591e-20)
(10.3523 -0.00679591 7.82423e-20)
(10.3227 -0.0105125 0)
(10.3868 -0.0273247 -2.17932e-19)
(10.4095 -0.0981511 -1.39794e-19)
(10.1534 -0.00199419 4.57328e-21)
(10.1592 -0.00540108 -2.47562e-21)
(10.1663 -0.0119436 1.78723e-20)
(10.1676 -0.019023 4.09178e-21)
(10.1708 -0.0178561 1.33776e-20)
(10.1709 -0.0223886 -1.94341e-21)
(10.1721 -0.017708 3.79275e-22)
(10.1683 -0.0143644 -2.19823e-21)
(10.1693 -0.0195412 8.63638e-21)
(10.1625 -0.025033 0)
(10.243 -0.0113517 -2.60846e-22)
(10.0002 0.00575639 -4.06292e-20)
(10.0016 0.0153373 8.29571e-20)
(10.0388 0.00743858 -2.93714e-20)
(10.0282 0.0195777 -5.34851e-20)
(10.0054 0.0232431 3.27402e-20)
(10.0107 0.0237568 -2.45647e-20)
(10.0205 0.0216447 5.22419e-20)
(9.99812 -0.011551 0)
(9.99964 -0.00370474 0)
(9.99563 -0.0495913 -1.67617e-20)
(9.99021 -0.03737 -5.57177e-20)
(9.99263 -0.0285494 1.70703e-20)
(9.99557 -0.0198525 1.8598e-21)
(10.1294 -0.120833 -1.74438e-20)
(10.4297 -0.194478 -1.7438e-19)
(10.1871 -0.141246 -4.67387e-21)
(10.3357 -0.183371 2.66111e-20)
(10.2545 -0.170417 3.02868e-20)
(10.0896 -0.0917611 -4.33886e-20)
(10.0717 -0.0773365 -1.29995e-20)
(10.106 -0.120126 2.37834e-20)
(10.0438 -0.0869506 -7.22241e-20)
(10.0215 -0.0847359 0)
(10.0055 -0.0762342 -1.33755e-20)
(9.99428 -0.0625248 -3.59414e-21)
(10.3033 -0.0456791 5.32459e-22)
(7.93227 -0.0224409 0)
(8.78239 0.061611 1.1164e-21)
(8.69496 -0.0299511 0)
(10.1348 0.0194297 -1.31122e-21)
(10.3542 0.0365258 -5.83353e-22)
(10.2088 0.0612078 7.77441e-23)
(10.2077 0.0498802 0)
(10.1942 0.0438915 9.03059e-22)
(10.1761 0.061021 1.59398e-20)
(10.2256 0.0439421 0)
(10.2399 0.0380011 3.38964e-20)
(10.2713 0.0132978 -4.40423e-21)
(10.256 0.0289601 -3.90013e-20)
(10.3098 0.00226801 -2.5481e-21)
(10.3587 0.0308471 9.68508e-20)
(10.3963 0.00744942 -4.45704e-20)
(10.4345 -0.0478751 1.62713e-19)
(10.4674 -0.138379 4.00254e-20)
(10.157 -0.00187741 0)
(10.1639 -0.00512286 0)
(10.1708 -0.0110329 -2.42682e-20)
(10.1724 -0.0147338 6.47658e-22)
(10.1684 -0.0231199 -9.43821e-21)
(10.1721 -0.0205545 0)
(10.1739 -0.0264497 -2.41099e-21)
(10.1746 -0.0191683 -3.81881e-21)
(10.1736 -0.0204029 3.51392e-21)
(10.169 -0.0270828 4.33141e-21)
(10.2607 -0.0136555 1.12051e-22)
(10.0001 0.00433657 3.33707e-20)
(10.0004 0.0131135 8.38184e-20)
(10.0018 0.0206531 -1.22571e-19)
(10.0037 0.0245471 -4.44602e-20)
(10.057 0.00733762 0)
(10.0413 0.0194835 3.42459e-20)
(10.0335 0.0301905 -4.13115e-20)
(10.0089 0.0291007 -1.43383e-20)
(10.0168 0.0302443 0)
(10.0272 0.0311033 -8.78619e-20)
(10.0774 0.00695334 -4.27044e-21)
(9.99704 -0.00805077 5.01433e-20)
(9.99954 -0.00229287 0)
(9.99985 0.00369593 0)
(9.98795 -0.0473292 -2.07329e-20)
(9.98541 -0.0315903 4.39291e-20)
(9.99237 -0.0154341 -5.404e-20)
(9.98821 -0.0235108 0)
(10.1493 -0.155273 9.40511e-24)
(10.3835 -0.243616 1.50397e-20)
(10.2114 -0.194173 5.9132e-21)
(10.2897 -0.220057 3.13177e-22)
(10.0817 -0.11574 3.29373e-20)
(10.0606 -0.0989178 5.96829e-20)
(10.1123 -0.160274 0)
(9.98327 -0.0602474 4.40271e-20)
(10.0332 -0.103695 -7.75493e-22)
(10.0094 -0.095243 0)
(9.99235 -0.0781889 -1.65511e-20)
(10.2868 -0.0421499 -8.79934e-23)
(7.90013 -0.0266326 4.51922e-22)
(8.69869 0.0681064 -6.94166e-22)
(8.64875 -0.0268977 -1.25191e-21)
(10.2082 0.0708701 0)
(10.1219 0.00704964 1.14668e-22)
(10.3479 0.0396337 -8.0767e-23)
(10.2063 0.0673034 -2.3489e-20)
(10.1901 0.070452 3.65572e-21)
(10.2487 0.0628046 -7.705e-21)
(10.2332 0.0612571 2.86411e-20)
(10.2906 0.0373344 -5.52413e-20)
(10.3239 0.0460284 -1.01182e-19)
(10.2712 0.04075 7.21407e-20)
(10.3827 0.0483878 0)
(10.4462 0.00866513 9.75463e-20)
(10.4959 -0.0759427 0)
(10.1591 -0.00160723 4.30686e-21)
(10.1713 -0.00412438 4.45288e-20)
(10.1755 -0.0092819 0)
(10.1774 -0.0144119 -3.76459e-22)
(10.1783 -0.0210643 -1.04943e-20)
(10.1698 -0.0294022 0)
(10.1746 -0.0226198 0)
(10.1776 -0.0295848 -3.53344e-22)
(10.1794 -0.021351 1.01759e-20)
(10.1701 -0.0342265 1.10934e-21)
(10.2637 -0.0191972 -1.05324e-21)
(10.1563 0.000498556 -5.24038e-21)
(10.1517 0.00160779 0)
(9.99937 0.0130704 1.34874e-20)
(9.99925 0.0213919 0)
(10.0029 0.0287733 4.66943e-20)
(10.0068 0.0324857 1.43791e-20)
(10.0576 0.020375 0)
(10.0441 0.0315154 5.7485e-20)
(10.0345 0.0369054 3.79224e-21)
(10.0144 0.0367315 0)
(10.0243 0.0380355 0)
(10.0758 0.0219172 -4.76486e-22)
(10.0983 0.00594268 -4.13093e-21)
(10.1178 0.00348911 0)
(10.1334 0.000149366 4.61171e-20)
(10.1468 0.00504462 -4.57117e-20)
(9.99927 0.000634231 0)
(9.99571 -0.00264225 0)
(9.99966 0.00198791 0)
(9.99823 0.0115161 0)
(9.97161 -0.0514696 -2.15662e-20)
(9.98003 -0.0395397 5.48333e-20)
(9.98185 -0.0249656 0)
(9.98895 -0.00928084 5.35093e-20)
(10.1641 -0.213854 1.99038e-20)
(10.3306 -0.287065 2.33606e-20)
(10.2387 -0.251823 -2.14998e-20)
(10.0514 -0.123403 2.82083e-21)
(10.0774 -0.139366 -6.26982e-22)
(10.0969 -0.191791 1.03994e-20)
(10.1189 -0.229882 -3.5901e-20)
(9.96075 -0.0655828 0)
(9.97674 -0.076038 -2.64415e-21)
(10.0186 -0.118602 0)
(9.99124 -0.0998452 0)
(10.3061 -0.0435547 0)
(8.60762 0.0738098 -1.72995e-22)
(7.85602 -0.0309063 -2.50422e-22)
(8.71528 -0.0394473 -1.01543e-20)
(10.3332 0.051402 0)
(10.1663 -0.00310796 -4.32384e-21)
(10.2188 0.0957164 -4.0034e-21)
(10.2414 0.0727178 -1.42152e-20)
(10.3203 0.0856137 0)
(10.2789 0.0801861 0)
(10.3615 0.0805521 -3.9253e-20)
(10.4432 0.064279 4.59305e-21)
(10.5128 -0.00722602 2.49178e-20)
(10.1693 0.000860776 -5.32124e-20)
(10.1803 -0.00709368 0)
(10.1829 -0.0128558 1.44176e-20)
(10.1842 -0.0208704 3.77482e-22)
(10.1847 -0.0231069 1.82355e-21)
(10.1725 -0.0367619 -1.15723e-21)
(10.1785 -0.0255522 1.52984e-21)
(10.1826 -0.0324817 0)
(10.2663 -0.0251412 2.97642e-22)
(10.1719 -0.0416392 -7.30586e-22)
(10.1568 0.0133385 2.21639e-20)
(10.1669 0.00522215 8.69677e-21)
(10.1612 0.00984178 -2.83007e-21)
(9.99798 0.0212352 1.64319e-20)
(9.99972 0.0292953 -3.1967e-20)
(10.005 0.0372212 -1.61441e-20)
(10.0118 0.0417046 1.37e-20)
(10.0586 0.033561 0)
(10.0451 0.0409671 2.2193e-20)
(10.0334 0.0450308 -3.58748e-21)
(10.0219 0.0456708 1.12345e-21)
(10.0746 0.0364195 -1.73643e-20)
(10.0962 0.0270877 1.48598e-20)
(10.0917 0.0378176 -7.68097e-21)
(10.1582 0.0227873 1.34652e-20)
(10.1155 0.0254729 -1.24442e-23)
(10.1475 0.0238569 -1.16072e-21)
(10.1332 0.0238469 3.99613e-21)
(9.99665 0.00850096 0)
(9.99262 0.00360608 0)
(9.99564 0.0196084 6.11129e-20)
(9.9854 0.00243306 -1.07262e-19)
(9.96078 -0.0417314 -5.67953e-20)
(9.97243 -0.0311499 2.55013e-20)
(9.98089 -0.0125427 1.70527e-20)
(9.94678 -0.0509422 0)
(10.1844 -0.276125 0)
(10.2717 -0.324367 1.52408e-20)
(10.0367 -0.155617 -2.34234e-20)
(10.0557 -0.21005 3.13965e-20)
(10.0613 -0.168735 3.06126e-20)
(10.0654 -0.248029 -1.58746e-20)
(10.1286 -0.293441 5.89808e-21)
(9.96897 -0.0962931 -4.44381e-20)
(9.94791 -0.081368 5.28923e-20)
(9.99178 -0.129629 -3.85468e-20)
(10.3891 -0.0544112 2.718e-21)
(8.51395 0.103536 8.97454e-21)
(7.78542 -0.0326895 -4.76314e-20)
(8.72367 -0.0980896 -5.93362e-21)
(10.3603 0.0609213 1.70836e-20)
(10.2567 0.0167705 -1.85921e-20)
(10.2521 0.108521 4.24401e-20)
(10.263 0.0818749 -2.32591e-20)
(10.3417 0.117997 1.85421e-19)
(10.4263 0.118227 3.13509e-19)
(10.5174 0.0633924 -2.36908e-19)
(10.1814 -0.00177302 0)
(10.1886 -0.0096016 -3.02329e-20)
(10.1911 -0.0191328 -1.08804e-22)
(10.1918 -0.0239507 -1.18384e-20)
(10.1893 -0.0342387 1.18726e-21)
(10.1781 -0.0446922 3.86907e-22)
(10.1844 -0.0294456 5.85555e-22)
(10.233 -0.0325794 -2.88049e-22)
(10.1693 -0.0499373 0)
(10.1672 0.0145937 0)
(10.1816 0.00470492 0)
(9.99304 0.0283385 1.02016e-19)
(9.99683 0.0297973 -1.683e-20)
(10.001 0.0385807 4.99114e-20)
(10.0089 0.0477094 0)
(10.0193 0.0526485 -4.36291e-20)
(10.059 0.0454616 -6.50085e-21)
(10.0451 0.0510398 -1.46081e-21)
(10.0316 0.0546961 1.48765e-20)
(10.0744 0.0484758 1.10681e-20)
(10.0909 0.0553947 1.73528e-20)
(10.1066 0.0473754 -6.16659e-21)
(10.1684 0.0239618 5.9277e-21)
(10.1639 0.0307865 1.43443e-20)
(10.1218 0.0443143 1.12286e-21)
(10.1538 0.0350591 -2.5141e-21)
(10.1396 0.0399769 -1.28547e-20)
(9.99257 0.0164921 5.81638e-20)
(9.98734 0.0117308 7.49545e-20)
(9.98909 0.0248809 -2.21285e-19)
(9.97702 0.000851456 -1.78259e-20)
(9.93091 -0.0667582 1.64533e-20)
(9.95032 -0.023612 -2.77454e-19)
(9.96443 -0.0122907 8.90233e-20)
(9.93411 -0.0260304 0)
(9.98671 0.0317107 4.49383e-20)
(10.2074 -0.352902 -3.59915e-21)
(9.99988 -0.170986 0)
(10.0114 -0.202531 6.72851e-20)
(10.0204 -0.249329 -3.90378e-20)
(10.0699 -0.303597 0)
(10.1383 -0.371315 -3.59098e-21)
(9.94631 -0.16214 -9.43317e-20)
(9.95317 -0.129239 3.22642e-20)
(9.92724 -0.119696 -1.34236e-19)
(10.4166 -0.0956423 7.47905e-21)
(8.32342 0.223344 3.27918e-21)
(7.78357 -0.0421685 2.98769e-19)
(8.31876 -0.228064 -1.70315e-19)
(10.3277 0.149736 -2.00549e-21)
(10.2874 0.143045 -1.61602e-19)
(10.3539 0.14809 8.21914e-20)
(10.3952 0.167447 -1.85528e-19)
(10.5061 0.136331 -7.82349e-21)
(10.1937 -0.00421003 1.59139e-20)
(10.1984 -0.0150422 -3.4063e-23)
(10.2006 -0.0227664 1.69173e-20)
(10.1986 -0.034547 -1.12462e-21)
(10.1849 -0.0540629 -7.51942e-22)
(10.1927 -0.0333431 1.85682e-21)
(10.2111 -0.0520027 1.62824e-22)
(10.1762 -0.060495 2.00628e-20)
(10.1818 0.0133009 0)
(10.1974 0.00372264 -1.81553e-20)
(9.99125 0.0370881 -3.72123e-20)
(9.9965 0.0391337 -3.33465e-20)
(10.0037 0.0512549 0)
(10.0162 0.0614307 -2.78322e-20)
(10.0295 0.0631406 1.58958e-20)
(10.0593 0.0565705 6.24946e-21)
(10.0439 0.0635595 0)
(10.0759 0.0615575 -3.12391e-21)
(10.0945 0.0631627 -1.74892e-21)
(10.1133 0.0627342 4.49961e-21)
(10.1812 0.0243662 -1.03472e-20)
(10.1752 0.0349622 0)
(10.1314 0.0589209 -5.11889e-22)
(10.1642 0.0447203 -1.05667e-21)
(10.1492 0.0525882 -7.13357e-21)
(9.97908 0.0114792 -3.24849e-20)
(9.98208 0.0238843 0)