/*--------------------------------*- C++ -*----------------------------------*\
  =========                 |
  \\      /  F ield         | OpenFOAM: The Open Source CFD Toolbox
   \\    /   O peration     | Website:  https://openfoam.org
    \\  /    A nd           | Version:  8
     \\/     M anipulation  |
\*---------------------------------------------------------------------------*/
FoamFile
{
    version     2.0;
    format      ascii;
    class       volScalarField;
    location    "0.004";
    object      p;
}
// * * * * * * * * * * * * * * * * * * * * * * * * * * * * * * * * * * * * * //

dimensions      [0 2 -2 0 0 0 0];

internalField   nonuniform List<scalar> 
424
(
-2.51834e-08
0.0730488
0.0120333
0.0650212
0.105491
0.248327
0.0519002
-0.0154203
0.274683
0.483341
0.40356
0.412224
-0.050551
-0.198865
0.495639
0.738991
0.481162
0.484777
-0.443438
-0.22898
0.737515
0.994779
0.656382
0.656973
-0.698016
-0.459357
-0.340778
-0.35126
0.9803
1.23773
1.42171
1.50239
0.846295
0.844747
-3.56501
-0.9237
-1.15054
-1.42368
-0.701473
-0.420661
-0.42402
1.20831
1.38544
1.49032
1.43392
1.0166
1.0143
-2.92636
-2.81421
-0.920302
-1.16022
-1.2192
-0.595787
-0.596731
1.44815
1.50872
1.08687
1.0838
-2.42219
-1.27278
-0.793592
-0.792429
1.54636
1.68905
-1.16618
-0.699151
-0.987144
-0.988045
1.92549
1.719
-0.0395861
-0.663589
-1.09051
-1.11121
2.17874
1.93927
1.84166
1.84914
0.723352
-0.0101076
4.46215
2.41172
1.48027
2.15272
2.77737
5.2222
2.90309
2.62911
2.17792
1.92663
1.93009
0.727504
-0.397825
4.02956
2.40303
1.46598
2.12273
2.63901
4.50747
2.66722
2.63494
2.10145
2.10227
-0.168019
-0.421763
2.30004
2.29942
0.384767
-0.168509
2.49326
2.49762
0.983609
0.384538
2.60645
2.63211
1.55344
0.981356
1.80632
1.54925
1.82391
0.121024
0.0271867
0.0476474
0.03824
0.0641544
0.14838
-0.0434934
0.00269563
0.195508
0.275516
0.292715
0.150998
0.156028
0.191631
0.305302
0.283143
0.281726
0.408096
0.393505
0.413894
0.0179792
-0.00543804
0.0413843
0.0287128
-0.0456591
-0.074941
-0.0709516
-0.161635
-0.0896318
-0.181933
-0.0332778
0.0346985
0.0792633
0.12382
0.249167
0.165065
0.352047
0.344735
0.451519
0.49725
0.558913
0.484436
0.578879
-0.085415
-0.0817819
-0.192266
-0.237
-0.249583
-0.252499
-0.279407
-0.0743088
-0.265007
-0.106906
-0.192293
0.626248
0.624622
0.740016
0.77499
0.661544
0.77496
-0.318234
-0.308054
-0.460047
-0.346745
-0.401118
-0.341565
-0.357264
0.88195
0.884598
0.980485
0.967174
1.06446
0.850764
0.950387
-0.563902
-0.697219
-0.510784
-0.57109
-0.424681
-0.525611
1.12419
1.13955
1.21247
1.199
1.27582
1.22572
1.11891
1.19553
1.01743
1.09472
-0.823086
-0.91835
-0.722324
-0.813978
-0.600649
-0.727081
1.33411
1.30823
1.31847
1.3752
1.37252
1.34314
1.34718
1.38073
1.38628
1.45766
1.47612
1.45893
1.21713
1.29432
1.09489
1.21348
1.36887
1.40069
1.46449
-1.31941
-1.69987
-2.56145
-2.21481
-1.05628
-1.15666
-1.27063
-1.05063
-0.916761
-0.993573
-0.798204
-0.912359
-1.18527
-1.30703
1.49547
1.44392
1.45315
1.44967
1.5029
1.44938
1.48129
1.53337
1.56431
1.5865
1.66723
1.34566
1.42096
1.53606
1.49477
1.21484
1.2935
-1.56445
-1.47908
-1.74472
-1.25237
-1.15138
-1.14036
-1.19447
-1.05971
-1.11388
-0.983722
-1.06606
-0.891028
-1.23406
-1.13735
-1.09261
-1.15361
-1.25891
1.56756
1.61326
1.67854
1.57383
1.72749
1.72108
1.73201
1.76188
1.58055
1.7427
1.61647
1.69452
-0.905895
-0.772705
-1.03226
-0.646636
-0.702154
-0.578275
-1.14648
-1.15094
-0.754439
-0.785352
-1.09403
-1.16806
-1.04567
-1.09887
-1.25187
-1.18976
-1.08064
-0.775236
1.7765
1.78637
1.93942
1.8457
1.88638
1.83308
1.85321
-0.42852
-0.428243
0.0125733
-0.378814
-0.10531
-0.429292
-0.369383
-1.38735
-1.29762
-1.10977
-1.21591
-1.1757
-1.52238
-1.47196
-1.18677
2.06117
2.17915
1.99829
2.06106
1.92787
2.01789
0.311732
0.731598
0.0830934
0.316525
-0.159961
0.141172
-1.09849
3.75782
4.07179
2.31828
2.4004
2.19983
2.31454
2.10569
2.21
1.13987
1.46091
0.80439
1.13768
0.403504
0.793954
2.61521
3.17861
2.5411
2.62726
1.89752
2.10894
2.4353
2.75307
3.04245
2.79228
3.23476
2.65778
2.53205
2.40731
2.49054
2.30001
2.39812
1.92294
1.41634
1.55285
0.989489
1.35205
2.33456
2.94174
2.67817
2.6284
2.16861
2.23593
2.81862
2.6859
2.70615
2.68777
2.58326
2.60602
2.48682
2.58565
1.78758
2.03407
1.55688
1.77026
2.40051
2.63783
2.64493
2.65279
2.13836
2.35481
2.74472
2.63624
2.6724
2.61765
2.67469
1.83055
2.10912
2.58976
2.90758
2.81714
2.5231
2.55812
3.04572
2.98486
2.58993
2.49348
)
;

boundaryField
{
    movingWall
    {
        type            zeroGradient;
    }
    fixedWalls
    {
        type            zeroGradient;
    }
    frontAndBack
    {
        type            empty;
    }
    defaultFaces
    {
        type            empty;
    }
}


// ************************************************************************* //
