/*--------------------------------*- C++ -*----------------------------------*\
  =========                 |
  \\      /  F ield         | OpenFOAM: The Open Source CFD Toolbox
   \\    /   O peration     | Website:  https://openfoam.org
    \\  /    A nd           | Version:  8
     \\/     M anipulation  |
\*---------------------------------------------------------------------------*/
FoamFile
{
    version     2.0;
    format      ascii;
    class       volVectorField;
    location    "0.004";
    object      U;
}
// * * * * * * * * * * * * * * * * * * * * * * * * * * * * * * * * * * * * * //

dimensions      [0 1 -1 0 0 0 0];

internalField   nonuniform List<vector> 
656
(
(0.740977 0.0563998 -9.68944e-25)
(0.927419 0.0141796 1.87328e-24)
(0.950282 -0.00132933 0)
(-0.0914553 0.114154 2.05779e-23)
(0.551427 0.0965153 1.12698e-23)
(0.824762 0.000319503 0)
(-0.0571416 0.0651054 -5.09912e-23)
(-0.0144866 0.0184248 8.86398e-24)
(0.959731 -0.000307602 0)
(-0.000907267 0.123911 -2.56753e-24)
(-0.00395832 0.170203 -8.46706e-23)
(-0.118896 0.163115 0)
(0.366612 0.136341 1.0253e-23)
(0.684563 0.00683452 0)
(0.861954 0.000541744 -1.74337e-22)
(0.866231 -3.13907e-05 5.19405e-23)
(0.000903234 0.0744742 1.54774e-23)
(0.00135474 0.0244425 0)
(0.959548 -0.000249637 -3.72049e-23)
(0.866296 -8.15368e-05 -1.58867e-22)
(-0.0114198 0.0720684 8.33287e-23)
(-0.00485336 0.0495275 0)
(-0.0218672 0.0952929 1.44067e-24)
(-0.00963404 0.209888 1.80699e-22)
(-0.138372 0.208668 -1.89693e-22)
(0.195683 0.172656 -2.29189e-23)
(0.531533 0.0184732 0)
(0.748164 0.00406209 2.74552e-22)
(0.757318 0.0013221 -9.3383e-23)
(-0.00134159 0.0284488 0)
(-0.000138733 0.00923827 0)
(0.865546 -4.28527e-05 5.87228e-23)
(0.958604 -0.000167331 -4.15431e-23)
(0.758477 0.00062123 2.17694e-22)
(0.757737 0.000254162 -5.92514e-23)
(0.760414 3.47668e-05 -1.28259e-22)
(-0.00515899 0.0482811 -1.13683e-22)
(-0.00215926 0.0330788 1.82693e-23)
(-0.0104246 0.0638231 -2.03718e-22)
(-0.0369172 0.118023 -1.70516e-22)
(-0.0196223 0.239076 1.80035e-22)
(-0.147992 0.247101 -1.26701e-23)
(0.0478622 0.202548 4.72214e-22)
(0.370724 0.035109 0)
(0.618297 0.0108355 0)
(0.632703 0.00417473 -3.98388e-22)
(-0.00064879 0.0189013 -5.7748e-24)
(-0.000111253 0.00609832 0)
(0.765053 -0.000300066 1.45303e-22)
(0.866937 3.10088e-05 -3.30993e-23)
(0.957766 -7.89936e-05 5.71881e-24)
(0.634956 0.0021343 0)
(0.634119 0.000908896 0)
(0.638179 5.16469e-05 -1.25687e-22)
(0.644867 -0.00113392 5.50883e-22)
(0.642967 -0.00291919 0)
(-0.00796941 0.0309092 2.19084e-22)
(-0.0039419 0.0226376 3.20099e-22)
(-0.00164635 0.0150264 -3.13387e-22)
(-0.0186532 0.07847 -2.0097e-22)
(-0.0144256 0.0393113 6.34144e-22)
(0.20956 0.0568532 -1.35591e-22)
(0.474144 0.0213266 1.86146e-22)
(0.494022 0.00894938 -5.64278e-22)
(-0.000489493 0.00828628 5.02063e-23)
(-8.60667e-05 0.0024726 6.64292e-23)
(0.763874 -0.000845303 -3.09107e-22)
(0.86974 8.63184e-05 1.02405e-22)
(0.958064 1.88427e-05 6.67341e-24)
(0.630628 -0.0100249 -1.06723e-23)
(0.497506 0.00465205 0)
(0.496519 0.00205748 2.22296e-22)
(0.502154 0.00014979 2.40488e-22)
(0.510959 -0.00244233 -1.05663e-21)
(0.508442 -0.00644997 2.74659e-22)
(-0.00687325 0.0134139 9.7839e-22)
(-0.00347348 0.00973837 -1.04379e-24)
(-0.00161351 0.00651101 0)
(-0.000599597 0.00391326 1.15936e-22)
(0.320817 0.0368635 0)
(0.34652 0.016768 7.22905e-22)
(-0.000106662 0.00192715 -1.09749e-22)
(3.32948e-05 0.000452828 -3.38233e-23)
(0.540231 -0.0170836 5.66892e-22)
(0.756258 -0.0037402 1.79397e-22)
(0.869449 0.000117356 0)
(0.95927 0.000115094 -6.34102e-23)
(0.490712 -0.019901 -3.48355e-22)
(0.381002 -0.0330866 8.48378e-22)
(0.222442 -0.180515 -1.02519e-21)
(0.351398 0.00873476 0)
(0.350191 0.00391477 5.46589e-23)
(0.357582 0.000431015 -1.71436e-22)
(0.368367 -0.00454741 6.1171e-22)
(0.3654 -0.0123207 -1.05182e-21)
(-0.0141177 0.00535262 4.1876e-22)
(-0.00986242 0.00280095 -4.43168e-22)
(-0.00643196 0.00132926 -2.18753e-22)
(-0.00380012 0.000492935 4.3741e-22)
(-0.00183954 7.80579e-05 5.25726e-23)
(-0.000411878 -3.53705e-05 -3.17885e-23)
(-0.141663 -0.22232 6.51433e-23)
(0.392133 -0.143236 -6.99557e-23)
(0.690232 -0.00623473 -9.41002e-22)
(0.866054 -0.000461619 0)
(0.959923 0.000237015 0)
(0.341066 -0.0355024 6.61992e-22)
(0.218696 -0.0547537 -3.35245e-22)
(0.0681111 -0.21008 1.18137e-22)
(-0.150356 -0.258653 1.57723e-21)
(-0.0378801 0.00816372 0)
(-0.0292814 0.00452149 2.13011e-22)
(-0.0212829 0.00231242 -7.52478e-22)
(-0.0140597 0.00099727 2.09667e-22)
(-0.00768634 0.00030779 -4.99614e-23)
(-0.00213601 6.47782e-05 -3.10045e-23)
(-0.0100783 -0.2273 0)
(-0.12328 -0.176632 0)
(0.571035 -0.101774 5.65448e-22)
(0.827465 -0.00023168 -4.77655e-23)
(0.96028 0.000321284 -1.24918e-22)
(-0.0196526 -0.25326 -1.88679e-21)
(-0.0552136 0.00605067 0)
(-0.0431219 0.0035179 2.24558e-22)
(-0.0317081 0.00183733 -3.72799e-24)
(-0.0212302 0.000838468 1.11832e-22)
(-0.0118133 0.000303757 -5.25938e-23)
(-0.00349072 9.29955e-05 0)
(-0.0237161 -0.10618 -6.49654e-22)
(-0.0042669 -0.188546 0)
(-0.0959984 -0.125408 5.65359e-22)
(0.752185 -0.0596128 0)
(0.950269 0.00137931 9.29872e-23)
(-0.0393182 -0.128336 0)
(-0.0665539 0.00429549 0)
(-0.0522109 0.00248664 1.41311e-22)
(-0.0385685 0.00131945 -4.09931e-22)
(-0.0259655 0.000623955 1.33163e-22)
(-0.0145873 0.000258361 5.90107e-23)
(-0.00447378 9.83539e-05 -1.99614e-23)
(-0.00982446 -0.076595 3.30808e-22)
(-0.0127429 -0.0819757 0)
(-0.000883342 -0.139924 -4.96584e-22)
(-0.0606284 -0.0723861 4.78766e-22)
(0.930157 -0.0148886 0)
(-0.0174404 -0.0916442 0)
(-0.0695575 0.00342565 1.80493e-22)
(-0.0543654 0.00206477 -1.74009e-22)
(-0.0400716 0.00111028 1.68653e-22)
(-0.0269501 0.000525391 -3.24106e-22)
(-0.0151577 0.000211136 4.45893e-22)
(-0.00474311 7.59528e-05 -5.95045e-23)
(-0.00769483 -0.0448979 2.89594e-22)
(-0.0049172 -0.059288 -6.22204e-22)
(-0.00529796 -0.0571709 1.78423e-22)
(0.00150817 -0.0849125 -5.12147e-22)
(-0.0140687 -0.0202287 1.41123e-23)
(-0.0135441 -0.0546737 0)
(-0.00835076 -0.0341551 -6.49024e-23)
(-0.0681051 0.00350633 -2.2225e-22)
(-0.0528988 0.00241339 8.97644e-22)
(-0.0388446 0.00138212 -8.57053e-22)
(-0.0261068 0.00063619 0)
(-0.0146975 0.0002213 0)
(-0.00465324 6.03479e-05 -6.5491e-24)
(-0.0047072 -0.0281765 1.3855e-22)
(-0.00390675 -0.034297 3.94798e-24)
(-0.00191506 -0.0413651 4.74759e-22)
(-0.00112072 -0.0329906 -1.75453e-22)
(0.00225159 -0.0266491 0)
(-0.00532093 -0.020215 1.04284e-21)
(-0.040167 0.00188081 9.77705e-22)
(-0.0268918 0.00132571 -1.01235e-21)
(-0.0150561 0.00051289 0)
(-0.00473025 0.00010583 -9.21353e-24)
(-0.00303517 -0.0164349 -2.76316e-22)
(-0.0023576 -0.0215324 -1.08298e-22)
(-0.0015959 -0.0236842 2.24855e-22)
(-0.000364167 -0.0239029 -1.54606e-22)
(0.000173895 -0.0101559 5.86152e-23)
(-0.00333271 -0.0112936 0)
(-0.00203765 0.0094191 -1.14474e-21)
(-0.0308542 0.000506418 0)
(-0.0109541 0.000212931 -3.20469e-23)
(-0.0018879 -0.00600907 0)
(-0.00187456 -0.00913246 -2.78799e-22)
(-0.00152415 -0.0124013 -5.3828e-22)
(-0.000971496 -0.0148575 -7.43201e-23)
(-0.000393536 -0.0136043 1.52012e-22)
(0.000101434 -0.00758635 -5.88409e-23)
(-0.0013025 0.00659195 2.3583e-21)
(-0.00111135 0.00698607 2.43508e-21)
(-0.00187709 0.00694381 7.80521e-23)
(-0.00108582 -0.00307939 -5.54076e-22)
(-0.00104882 -0.00476659 3.66665e-25)
(-0.000928143 -0.00683724 1.44411e-22)
(-0.000638787 -0.00846358 4.36425e-22)
(-0.000262753 -0.00853614 9.05667e-24)
(-7.8457e-06 -0.00437377 -2.71944e-23)
(-0.000884787 0.00451469 1.0733e-25)
(-0.000679807 0.00487268 -1.97114e-21)
(-0.000533799 0.00496503 -5.88504e-22)
(-0.000888889 0.00429598 0)
(-0.00168921 0.00870802 1.63759e-21)
(-0.000618069 -0.00140621 -2.9735e-22)
(-0.000583932 -0.00240635 2.95719e-22)
(-0.000508974 -0.00350144 1.47218e-22)
(-0.000388214 -0.00462519 0)
(-0.000187024 -0.00481705 -1.43108e-22)
(-2.46618e-05 -0.00277386 2.04637e-23)
(-0.000670427 0.00262342 9.45327e-22)
(-0.000458654 0.00336914 3.80221e-22)
(-0.000319052 0.00340192 2.22782e-22)
(-0.000208024 0.00323371 6.01174e-23)
(-0.000248364 0.00227477 -6.77156e-23)
(-0.000266295 0.00255262 1.17957e-21)
(-0.000287002 -0.000401685 1.24231e-21)
(-0.000315246 -0.00106665 -4.64761e-22)
(-0.000274162 -0.00173853 -3.04269e-22)
(-0.000208595 -0.00232407 -1.48064e-22)
(-0.000115844 -0.00260711 0)
(-2.89183e-05 -0.00155384 -1.31817e-23)
(-0.00045493 0.00123147 0)
(-0.000347148 0.00196 -3.26167e-22)
(-0.000212475 0.00237058 -1.12179e-21)
(-0.000124661 0.00217317 3.63526e-22)
(-5.32304e-05 0.00176063 -4.00148e-22)
(-2.43281e-05 0.000645651 1.07111e-23)
(-0.000401499 -0.00013198 -5.39529e-22)
(-0.000132085 -0.000266988 8.22376e-22)
(-0.000143553 -0.00074511 -7.95721e-22)
(-0.000108166 -0.00113329 1.52512e-22)
(-6.02083e-05 -0.00128306 0)
(-1.95682e-05 -0.000827075 1.30336e-23)
(-0.000208729 0.000322284 0)
(-0.000226761 0.000901531 6.2997e-22)
(-0.000160315 0.00137334 8.18298e-22)
(-8.23641e-05 0.00152387 1.06915e-21)
(-3.1986e-05 0.00116463 -3.77083e-22)
(-5.77757e-06 0.000534145 -2.46519e-23)
(-0.000971565 -0.000191343 -6.44423e-22)
(-0.000251577 -6.99609e-05 0)
(-5.56887e-05 -0.00015983 5.90548e-22)
(-5.33534e-05 -0.000467994 0)
(-2.86346e-05 -0.000612043 0)
(-9.3018e-06 -0.000391438 0)
(-0.000335528 0.000130948 7.1777e-22)
(-9.3985e-05 0.000201444 -6.51592e-22)
(-0.000101336 0.00061413 -6.41029e-22)
(-6.14516e-05 0.000875831 -4.77607e-22)
(-2.12418e-05 0.000818754 -4.94864e-22)
(-2.73385e-06 0.000343563 1.47311e-23)
(-0.0013046 -6.57013e-05 0)
(-0.000718717 -0.000103791 1.61442e-22)
(-0.000144988 -3.35145e-05 0)
(-1.85443e-05 -8.33897e-05 9.87789e-28)
(-1.11672e-05 -0.00024183 0)
(-2.8719e-06 -0.000176898 -1.0315e-22)
(-0.00128966 7.83956e-05 0)
(-0.000917829 0.000198344 -6.47813e-22)
(-0.000208328 6.6866e-05 -1.80474e-22)
(-3.8707e-05 0.000112285 3.34415e-22)
(-3.64784e-05 0.00037833 -4.7513e-22)
(-1.45691e-05 0.000464223 -1.50332e-22)
(-2.10694e-06 0.000238349 1.04254e-22)
(-0.000979478 -3.58803e-05 -2.16645e-23)
(-0.000502533 -5.19664e-05 -2.4142e-22)
(-7.43529e-05 -1.17441e-05 0)
(-2.02644e-06 -3.38151e-05 -1.24198e-22)
(7.32073e-07 -6.31988e-05 1.04056e-22)
(-0.000965357 4.32674e-05 2.40722e-24)
(-0.000672527 0.000104136 7.27469e-22)
(-0.000118135 3.11278e-05 -4.54105e-27)
(-1.21473e-05 5.32684e-05 4.83206e-26)
(-6.51881e-06 0.000192024 -3.03887e-22)
(-4.43751e-07 0.000129088 9.56373e-23)
(-0.000696919 -1.80982e-05 1.70601e-22)
(-0.000321228 -2.13188e-05 1.17814e-22)
(-3.03233e-05 -1.25377e-06 -1.44976e-22)
(2.06796e-06 -5.3742e-06 2.64042e-23)
(-0.000684914 2.20769e-05 2.40206e-24)
(-0.000465753 5.17265e-05 -1.60969e-22)
(-5.87923e-05 1.06397e-05 5.19556e-22)
(-4.65624e-07 1.84663e-05 -2.43521e-22)
(1.35412e-06 4.84664e-05 1.78664e-26)
(-0.000454496 -7.72225e-06 0)
(-0.000171587 -5.76607e-06 1.30811e-22)
(-5.20306e-06 1.60242e-06 9.15655e-23)
(-0.000445524 9.36909e-06 0)
(-0.000294729 2.08324e-05 -2.3531e-22)
(-2.26789e-05 9.24069e-07 4.53158e-22)
(2.06012e-06 1.69599e-06 5.04585e-23)
(-0.000249235 -2.38103e-06 -1.11363e-24)
(-4.94453e-05 -5.95235e-07 -1.64335e-22)
(-0.000243771 2.79156e-06 1.11218e-24)
(-0.000155839 5.22974e-06 -1.30458e-22)
(-3.32645e-06 -1.53665e-06 1.29257e-22)
(-7.71452e-05 -4.19201e-07 4.98253e-23)
(-7.52888e-05 4.23057e-07 0)
(-4.44047e-05 2.7152e-07 -1.25856e-23)
(-0.15311 0.273569 2.47599e-21)
(-0.0524608 0.234834 4.7282e-22)
(-0.0301312 0.0915208 0)
(-0.0582082 0.128104 3.01315e-21)
(-0.0562297 0.140168 -3.18433e-21)
(-0.0745684 0.194196 0)
(-0.0439743 0.253898 0)
(-0.117395 0.298589 -1.1527e-21)
(-0.124704 0.250957 0)
(-0.0897536 0.220617 -1.97745e-21)
(0.0658156 0.0896969 4.46591e-21)
(-0.0959667 0.191423 0)
(-0.0237877 0.0477962 -3.99476e-22)
(-0.0379485 0.0712596 0)
(-0.012413 0.016746 -4.20978e-21)
(-0.0274285 0.0356437 4.30708e-21)
(-0.0542251 0.0766517 -2.50619e-21)
(-0.0757299 0.0953985 0)
(-0.0714744 0.129579 0)
(-0.0962402 0.149623 6.71341e-22)
(-0.127543 0.205088 0)
(-0.140817 0.21014 2.09959e-21)
(-0.101806 0.127654 2.58225e-21)
(-0.00806424 0.103774 -6.02868e-21)
(0.162014 0.0612294 1.18869e-21)
(-0.122122 0.138163 -6.40388e-22)
(-0.146661 0.153729 0)
(-0.0185684 0.0093671 -3.54668e-21)
(-0.0376005 0.0205346 9.66538e-22)
(-0.0417995 0.036139 8.05956e-22)
(-0.0591575 0.0515983 2.54829e-21)
(-0.0756676 0.0474172 -5.00914e-21)
(-0.0997871 0.0626224 -4.40681e-21)
(-0.100184 0.08568 -3.31061e-21)
(-0.126386 0.0983482 6.25444e-21)
(-0.154538 0.116783 -1.80284e-21)
(-0.133937 0.107863 -1.82467e-21)
(-0.0825791 0.0758953 0)
(0.201741 0.0302118 -6.33283e-21)
(0.0372285 0.0676878 0)
(0.206418 0.0161621 0)
(0.0521167 0.0334203 5.31805e-21)
(-0.142655 0.0836972 0)
(-0.157619 0.0897573 0)
(-0.0539804 -0.242693 6.98403e-21)
(-0.16391 -0.280047 0)
(0.212495 -0.0562563 0)
(0.196418 0.00694837 -2.26884e-22)
(0.0480818 0.0165622 0)
(0.0738184 -0.0606895 0)
(0.240136 -0.0215445 1.42933e-21)
(0.212224 0.000349487 4.38117e-21)
(0.0550734 0.00343225 0)
(0.0878123 -0.0249383 0)
(0.234417 -0.00904814 0)
(0.0775204 -0.00973819 -4.44894e-21)
(-0.0482205 0.0145388 1.29694e-21)
(-0.0659875 0.0217447 -1.6656e-21)
(-0.0769225 0.0282252 5.35826e-21)
(-0.102424 0.0282593 0)
(-0.11557 0.0406961 0)
(-0.127808 0.0437736 -3.53931e-21)
(-0.144053 0.0543119 -2.6927e-21)
(-0.160525 0.0643148 0)
(-0.085614 0.0407618 3.77168e-21)
(-0.132614 0.0584062 0)
(-0.0471857 0.0204799 0)
(-0.124009 0.0336069 -4.0827e-21)
(-0.156885 0.0441019 8.96227e-21)
(-0.168015 0.0486939 -2.66217e-21)
(-0.0932994 -0.200263 -3.90837e-21)
(0.0543227 -0.0909154 9.13831e-21)
(0.00770747 -0.0989624 -7.10408e-21)
(-0.14374 -0.302686 1.98296e-21)
(-0.139048 -0.239517 -4.32804e-21)
(-0.0463447 -0.263301 2.88923e-22)
(-0.0823065 -0.109049 -7.62264e-21)
(-0.0936348 -0.0829562 2.49044e-21)
(-0.0341935 -0.0646387 3.86827e-21)
(-0.0712198 0.00143832 0)
(-0.121955 0.0115204 0)
(-0.0891833 -0.0493733 -4.26297e-21)
(-0.0276871 -0.031897 0)
(-0.0879137 -0.0264245 -3.95955e-21)
(-0.0276095 -0.0140823 3.60994e-21)
(-0.110967 -0.00708797 5.45551e-21)
(-0.0671661 0.00880153 1.90486e-21)
(-0.0892871 0.0127849 0)
(-0.101617 0.0174267 0)
(-0.120966 0.0183068 3.82587e-21)
(-0.133304 0.0256069 0)
(-0.144876 0.0244197 9.53964e-21)
(-0.156745 0.0298619 -8.11816e-21)
(-0.159472 0.0176137 0)
(-0.160969 0.0280466 -6.58117e-21)
(-0.170287 0.030707 1.33496e-20)
(-0.169017 0.0130832 0)
(-0.169943 0.0265006 -8.62566e-21)
(-0.161994 0.0248769 -4.62625e-21)
(-0.144933 -0.204905 0)
(-0.150039 -0.145259 9.10426e-21)
(-0.0614679 -0.147055 0)
(-0.0729174 -0.207386 -6.19735e-22)
(-0.104435 -0.196689 4.86777e-22)
(-0.152427 -0.128588 -9.3513e-21)
(-0.145425 -0.0956444 -8.70424e-21)
(-0.153365 -0.078517 1.15791e-20)
(-0.142717 -0.0556359 3.57489e-21)
(-0.156731 -0.0327613 -4.68246e-21)
(-0.147788 -0.0238518 0)
(-0.152751 -0.012832 -3.77163e-21)
(-0.163159 -0.00785826 0)
(-0.0802541 0.00624254 0)
(-0.101295 0.0090109 -1.50576e-21)
(-0.114961 0.0115555 -5.84999e-21)
(-0.128699 0.0132762 5.02293e-21)
(-0.139968 0.0170795 -1.76582e-21)
(-0.147171 0.0169808 -2.29041e-21)
(-0.157853 0.0207509 7.22814e-21)
(-0.168445 0.0127353 -8.15647e-21)
(-0.170089 0.0178261 9.92047e-21)
(-0.16001 -0.000278209 0)
(-0.159884 0.0106293 -1.38475e-21)
(-0.162212 0.0206294 0)
(-0.159033 0.0198474 0)
(-0.0290211 -0.101743 -1.46672e-20)
(-0.068657 -0.139934 5.05299e-21)
(-0.0821144 -0.134414 6.06409e-21)
(-0.1117 -0.15252 -8.41254e-22)
(-0.132978 -0.129909 7.76279e-22)
(-0.128895 -0.0950146 -8.75105e-21)
(-0.142066 -0.0752672 0)
(-0.142508 -0.0468764 -1.10982e-20)
(-0.134165 0.00543527 -5.09782e-21)
(-0.137266 -0.040122 8.07176e-21)
(-0.152904 -0.0112118 3.25127e-21)
(-0.084779 0.00504788 5.30622e-21)
(-0.151064 0.0206128 3.15551e-21)
(-0.102691 0.00759804 -3.78957e-21)
(-0.114431 0.00982949 -3.26378e-21)
(-0.125673 0.0124745 -7.11233e-21)
(-0.139963 0.0155913 1.59221e-21)
(-0.143072 0.0172179 -4.01346e-21)
(-0.139714 0.0177981 -3.10537e-21)
(-0.155875 0.0220034 7.80168e-22)
(-0.153679 0.0172014 1.43413e-21)
(-0.130642 0.025979 5.54181e-21)
(-0.149234 0.0232564 2.32148e-21)
(-0.148594 0.0259995 -1.4837e-21)
(-0.148469 0.0249105 -2.22894e-21)
(-0.115033 0.0320875 -7.67315e-21)
(-0.0214437 -0.0623214 0)
(-0.035319 -0.0885194 9.82154e-21)
(-0.0871419 0.037376 0)
(-0.103264 0.0287283 5.02967e-21)
(-0.0590829 0.0387242 9.58739e-21)
(-0.0697542 0.034885 -6.33051e-21)
(-0.0470419 -0.090005 0)
(-0.0771593 -0.106061 -5.76432e-21)
(-0.096109 -0.087425 1.75406e-20)
(-0.0984967 0.0140357 -6.6894e-21)
(-0.110879 0.00323112 5.34274e-21)
(-0.0919419 -0.0687419 -1.2482e-20)
(-0.111282 -0.0346242 1.3308e-22)
(-0.0990884 -0.022089 -1.09368e-20)
(-0.082919 0.00493422 0)
(-0.139803 0.022883 0)
(-0.132389 0.0164312 3.03322e-22)
(-0.134291 0.0201676 -4.14001e-22)
(-0.0986739 0.008398 -5.89771e-21)
(-0.112058 0.0109415 6.27404e-21)
(-0.11981 0.0131564 5.44708e-21)
(-0.140898 0.0317353 2.11734e-21)
(-0.135574 0.0321998 -4.78169e-22)
(-0.122858 0.0391535 4.16429e-21)
(-0.111722 0.0400393 1.51336e-21)
(-0.135882 0.0264894 -6.33092e-21)
(-0.135172 0.0345188 1.20789e-23)
(-0.139792 0.0292232 5.40635e-21)
(-0.100559 0.0453755 2.6246e-21)
(-0.0875174 0.0460655 -8.51845e-21)
(-0.0608019 0.0458602 3.25645e-21)
(-0.073849 0.0482655 2.69638e-21)
(-0.0495434 0.0462488 -3.77143e-21)
(-0.0302816 0.0385074 0)
(-0.0389693 0.0408608 3.13325e-21)
(-0.0456436 0.0369459 -2.71145e-22)
(-0.0413647 0.0327603 0)
(-0.013029 -0.0384012 -4.96566e-21)
(-0.0251314 -0.0547903 4.85908e-21)
(-0.0292486 -0.0554028 3.38917e-21)
(-0.0464218 -0.0669527 0)
(-0.0506701 0.0214292 1.16842e-20)
(-0.0647653 0.0210679 0)
(-0.0752276 0.0115426 6.48851e-21)
(-0.0561814 -0.0523161 1.52717e-22)
(-0.0649556 -0.0118414 1.77551e-21)
(-0.0694625 -0.0542046 -4.93245e-21)
(-0.0771842 -0.0245509 9.87031e-21)
(-0.00811838 -0.0233418 -5.80482e-22)
(-0.0137761 -0.0312536 0)
(-0.0753375 0.00444547 0)
(-0.0527844 0.00134372 -6.08071e-22)
(-0.0628149 0.0016706 6.12972e-22)
(-0.122216 0.0206316 -3.49319e-21)
(-0.125994 0.0264768 3.08596e-21)
(-0.0872273 0.0072059 0)
(-0.104715 0.0114035 -2.88813e-21)
(-0.112055 0.0164989 3.43668e-21)
(-0.102554 0.0479501 1.41093e-21)
(-0.123998 0.0392882 -2.32386e-21)
(-0.119146 0.0428657 -2.93403e-21)
(-0.118456 0.0309924 -3.96998e-21)
(-0.11674 0.0378868 7.81581e-22)
(-0.0930939 0.048398 0)
(-0.0789304 0.0502287 0)
(-0.0706587 0.0503191 0)
(-0.0572854 0.0502215 -3.32011e-21)
(-0.0464973 0.0478911 -1.86007e-21)
(-0.03636 0.0451034 4.44354e-21)
(-0.0272605 0.0395147 0)
(-0.00456239 0.0162804 0)
(-0.00283026 0.0123984 -7.37395e-22)
(-0.00801637 0.0233627 3.97472e-21)
(-0.0127059 0.0293118 -3.48422e-21)
(-0.0199031 0.0357895 0)
(-0.0143808 0.028861 -6.53293e-21)
(-0.0212289 0.032676 1.54738e-23)
(-0.00662053 0.0186816 0)
(-0.00880908 0.0219629 -5.14686e-21)
(-0.00338829 0.0121955 0)
(-0.0223683 0.0295332 4.0003e-25)
(-0.0305347 0.0302161 3.87636e-24)
(-0.0301668 0.0237012 4.02279e-21)
(-0.0441092 0.0181065 -4.95341e-21)
(-0.0182563 -0.0315826 1.02683e-20)
(-0.0285089 -0.037689 -2.16263e-20)
(-0.0402218 -0.0342937 4.59526e-21)
(-0.0415985 0.00708044 -2.6097e-21)
(-0.0433398 -0.0191217 9.72503e-21)
(-0.0506317 -0.00970331 -6.83783e-21)
(-0.00489548 -0.012914 0)
(-0.00840055 -0.0178706 0)
(-0.0100374 -0.0177772 -4.22729e-21)
(-0.0172918 -0.0219111 -6.19483e-21)
(-0.00239968 0.00992888 6.23641e-22)
(-0.0693012 0.00484107 1.52225e-21)
(-0.0421979 1.91867e-05 0)
(-0.0523725 0.000908741 -1.33245e-21)
(-0.0845087 0.0153765 1.82666e-21)
(-0.0981775 0.0193814 -5.25478e-21)
(-0.105368 0.0292032 -5.74057e-23)
(-0.0907432 0.0379889 4.6386e-21)
(-0.0990484 0.042695 -5.4302e-21)
(-0.0919362 0.046745 3.69722e-21)
(-0.0545458 0.0498382 -4.34487e-21)
(-0.0715502 0.0465422 6.85035e-23)
(-0.0690533 0.0501829 1.23913e-21)
(-0.0208223 0.0380177 4.42033e-21)
(-0.0314772 0.0440827 -3.34588e-23)
(-0.0442553 0.0463797 2.16617e-21)
(-0.00612734 0.0224798 1.91062e-21)
(-0.0156111 0.0329394 -2.32978e-21)
(-0.0032596 0.0156115 -1.71732e-21)
(-0.0101743 0.0213843 5.85776e-21)
(-0.0151981 0.0239537 0)
(-0.00418252 0.012854 4.63395e-21)
(-0.00563136 0.0148593 -8.1985e-21)
(-0.00227105 0.00862912 0)
(-0.0026609 -0.00696813 0)
(-0.00439269 -0.00945572 -1.33559e-21)
(-0.0160117 0.0203908 5.94271e-21)
(-0.0228862 0.0194125 2.21837e-25)
(-0.023151 0.0129276 -1.22959e-20)
(-0.0315487 0.00642081 1.2457e-20)
(-0.0207752 -0.0146993 4.42251e-21)
(-0.0267415 -0.0121776 -3.58099e-21)
(-0.0255191 -0.00179595 -4.36848e-21)
(-0.00596511 -0.00968165 8.29021e-22)
(-0.00934307 -0.0118374 2.36767e-21)
(-0.0137285 -0.0100276 1.62582e-21)
(-0.00255987 0.0122845 -3.29601e-21)
(-0.0174879 0.0323527 0)
(-0.0358568 0.040671 0)
(-0.0545877 0.0206369 4.40201e-21)
(-0.063041 0.0322039 -3.05092e-21)
(-0.0580753 0.0408551 0)
(-0.013201 0.00147976 3.61564e-23)
(-0.0369595 0.00842641 0)
(-0.00611695 0.0205835 -1.11315e-22)
(-0.00251175 -0.00509 -7.00821e-22)
(-0.00153562 -0.00358505 3.44388e-21)
(-0.00737776 0.0140905 8.49226e-21)
(-0.0104269 0.0156436 0)
(-0.00267592 0.00833322 -3.85909e-21)
(-0.00417764 0.00977568 -1.22539e-20)
(-0.001503 0.00581861 6.76425e-21)
(-0.00335824 -0.00527046 4.85722e-22)
(-0.00612177 -0.00721233 0)
(-0.0120228 0.00999636 0)
(-0.0164879 0.00911493 0)
(-0.0175423 0.00101065 0)
(-0.00821389 -0.00533132 5.5393e-21)
(-0.0126525 -0.00578477 -4.73324e-21)
(-0.0138512 -0.000201654 0)
(-0.000846694 0.00677651 0)
(-0.00356744 -0.00387345 3.12981e-21)
(-0.00105226 -0.00173289 -7.84851e-21)
(-0.00165175 -0.00250772 1.36595e-20)
(-0.00232347 -0.00276696 -8.25771e-21)
(-0.00102431 -0.00115292 -2.68618e-21)
(-0.000477441 -0.00052001 0)
(-0.00493467 0.00783238 4.00382e-21)
(-0.00763492 0.00726115 0)
(-0.00181196 0.00479881 0)
(-0.00256681 0.0054632 0)
(-0.00109853 0.0033151 -1.47807e-21)
(-0.00466762 -0.00315831 2.56923e-21)
(-0.00644965 -0.00327721 0)
(-0.00676291 -0.000188902 7.7562e-21)
(-0.00735792 0.00434368 2.04704e-21)
(-0.00844783 0.00161631 -7.73255e-21)
(-0.00265698 -0.00202028 0)
(-0.00383747 -0.0019363 6.06038e-21)
(-0.00140903 -0.00109501 9.83446e-21)
(-0.00216919 -0.00144452 -1.11543e-20)
(-0.000565676 -0.000276567 -2.0034e-22)
(-0.00115762 -0.000585374 8.30766e-21)
(-0.00291727 0.00370537 1.66119e-21)
(-0.00407769 0.00331726 -1.24568e-21)
(-0.000766634 0.0015678 -9.56994e-21)
(-0.00122021 0.00224816 1.30767e-20)
(-0.00183429 0.00262755 0)
(-0.00396259 -0.000838079 -6.15206e-21)
(-0.0048479 0.000273852 -8.99434e-21)
(-0.00419032 0.000829971 1.3335e-20)
(-0.00378402 0.00198531 0)
(-0.000756723 0.000956135 0)
(-0.000364986 0.00044361 5.10579e-21)
(-0.00247573 -0.000738319 3.85559e-21)
(-0.00313562 -0.000531303 -6.83181e-21)
(-0.00129667 -0.000370553 -1.5093e-22)
(-0.00193239 -0.000443716 3.68609e-25)
(-0.00119575 0.00107166 0)
(-0.00182749 0.00159473 2.23354e-21)
(-0.00243022 0.00149467 -1.92955e-21)
(-0.00280846 -1.03184e-05 -5.95355e-25)
(-0.00239889 0.000746962 9.16075e-22)
(-0.0031688 0.000392445 7.24913e-21)
(-0.00046886 0.000256189 -6.76791e-21)
(-0.0010218 0.000587695 0)
(-0.00172236 -0.000125292 -1.0135e-20)
(-0.00228038 7.92154e-06 4.83069e-21)
(-0.00170823 0.000150873 5.13718e-21)
(-0.00124693 0.000418455 0)
(-0.00189316 0.000555604 -5.62778e-21)
)
;

boundaryField
{
    movingWall
    {
        type            fixedValue;
        value           uniform (1 0 0);
    }
    fixedWalls
    {
        type            noSlip;
    }
    frontAndBack
    {
        type            empty;
    }
    defaultFaces
    {
        type            empty;
    }
}


// ************************************************************************* //
