/*--------------------------------*- C++ -*----------------------------------*\
  =========                 |
  \\      /  F ield         | OpenFOAM: The Open Source CFD Toolbox
   \\    /   O peration     | Website:  https://openfoam.org
    \\  /    A nd           | Version:  8
     \\/     M anipulation  |
\*---------------------------------------------------------------------------*/
FoamFile
{
    version     2.0;
    format      ascii;
    class       volScalarField;
    location    "12000";
    object      k;
}
// * * * * * * * * * * * * * * * * * * * * * * * * * * * * * * * * * * * * * //

dimensions      [0 2 -2 0 0 0 0];

internalField   nonuniform List<scalar> 
4109
(
0.0294943
0.031043
0.0297417
0.0310132
0.0317424
0.0314662
0.0319627
0.030149
0.0330109
0.0325452
0.0325709
0.0333187
0.0298539
0.0316906
0.0324089
0.0337109
0.0334959
0.03351
0.0338681
0.0325537
0.0298961
0.0313772
0.0314084
0.0345923
0.0346237
0.0350342
0.02959
0.0316266
0.0298773
0.0348557
0.0335083
0.0328099
0.0313514
0.0312918
0.0322218
0.0351654
0.0350532
0.0361743
0.031892
0.02985
0.0315745
0.0317704
0.0302766
0.0355139
0.0341217
0.0955005
0.0476973
0.0334849
0.0329026
0.0312278
0.0322423
0.0358539
0.0366372
0.0379046
0.0336109
0.0317943
0.0293661
0.0318968
0.0323664
0.0331424
0.0328782
0.121505
0.0367272
0.0351031
0.0344442
0.0413684
0.0870562
0.0337479
0.0327674
0.0324779
0.0393814
0.0373379
0.0425474
0.0413715
0.0411864
0.0341541
0.0340538
0.0326711
0.03116
0.0328947
0.0325822
0.0329289
0.0334803
0.0336154
0.0384348
0.04525
0.10014
0.131039
0.13241
0.0379105
0.0375049
0.0358032
0.0351128
0.0345493
0.0379185
0.0665839
0.033731
0.0325529
0.0427003
0.0410166
0.0398859
0.0429949
0.043713
0.0432582
0.0434024
0.0352869
0.034766
0.0339335
0.0321071
0.0341319
0.0388438
0.0333685
0.0338816
0.0341181
0.0346739
0.138195
0.0527414
0.0664491
0.089328
0.14002
0.13757
0.0432823
0.0397092
0.0385823
0.036838
0.0361073
0.0354207
0.0344089
0.0669128
0.0343766
0.0338229
0.043123
0.0417124
0.0448116
0.0440366
0.0455689
0.0443332
0.0359679
0.0356527
0.0355716
0.0337216
0.0348152
0.0399899
0.0339472
0.0345554
0.0350241
0.0352687
0.12485
0.0734907
0.140777
0.0934771
0.143832
0.050401
0.0405643
0.0394826
0.0376553
0.0368704
0.0361797
0.0354503
0.0343711
0.0614672
0.0330963
0.0426388
0.0412535
0.0456743
0.0437598
0.046447
0.0468461
0.0476455
0.0371339
0.0366141
0.0363307
0.034556
0.0358001
0.0412138
0.0347743
0.0354559
0.0356977
0.0363704
0.0857421
0.156858
0.0884654
0.147534
0.147758
0.0511655
0.038783
0.0397309
0.0378945
0.0361463
0.0370806
0.0356197
0.0673059
0.0340211
0.0409557
0.0420216
0.0451887
0.0433404
0.0464316
0.0480914
0.0477229
0.0507254
0.0379033
0.0376176
0.03765
0.0361741
0.0360478
0.0414342
0.035504
0.0361264
0.0367111
0.0370907
0.0883089
0.15846
0.154125
0.0931465
0.157216
0.0507779
0.0388934
0.0400826
0.0375246
0.0364906
0.0688091
0.0349002
0.0411787
0.0424252
0.0445454
0.0436488
0.0459791
0.0480246
0.0491898
0.0511371
0.053491
0.0391801
0.0385743
0.0383978
0.0372319
0.0369124
0.0424614
0.0370112
0.0362537
0.0400884
0.0375824
0.0382753
0.0848968
0.166448
0.0967891
0.161539
0.163427
0.051632
0.0392031
0.0399782
0.0378983
0.0722185
0.0353612
0.0415114
0.0424202
0.0449574
0.0439934
0.0463103
0.0473383
0.0495491
0.0514384
0.0529531
0.0570317
0.0401947
0.0393394
0.0387301
0.0410629
0.0372225
0.0428826
0.0374982
0.0414013
0.0391362
0.0387238
0.173589
0.0846217
0.168896
0.100557
0.173553
0.05222
0.178178
0.0390003
0.0403526
0.0738809
0.0361638
0.0414869
0.0426744
0.0450577
0.0440034
0.0466197
0.0476818
0.0489256
0.0514043
0.0533722
0.0562288
0.0566062
0.0607034
0.0393253
0.0407661
0.0390696
0.0422313
0.042458
0.0379198
0.0437161
0.0391343
0.0404115
0.0397641
0.0849747
0.18152
0.175599
0.099119
0.179868
0.0529394
0.192185
0.184677
0.201925
0.165711
0.185362
0.156429
0.0883312
0.0370751
0.0403176
0.0423365
0.0432171
0.0439445
0.0454341
0.0467571
0.0477076
0.0491797
0.0578432
0.0504672
0.0532129
0.0559857
0.0613238
0.0648614
0.0632742
0.0693733
0.0416365
0.0411542
0.043447
0.0438744
0.0414032
0.039233
0.0452225
0.0398999
0.0409902
0.0874949
0.194267
0.181033
0.0528676
0.291805
0.259642
0.201859
0.172462
0.195364
0.221414
0.0754763
0.0759825
0.0811417
0.159978
0.149359
0.151417
0.148046
0.159317
0.150562
0.0387246
0.0452359
0.0452815
0.045987
0.0606697
0.0470051
0.0479489
0.0493293
0.0507211
0.0577031
0.0522391
0.0552907
0.0651246
0.0617056
0.0681428
0.0678822
0.0765104
0.0808355
0.0429086
0.0436708
0.0450706
0.0450186
0.0427835
0.0421231
0.0402973
0.0449206
0.0414816
0.091516
0.218404
0.302446
0.258241
0.177273
0.194673
0.221846
0.0795141
0.0814118
0.0869646
0.0826626
0.085638
0.132775
0.139184
0.139541
0.147218
0.160072
0.24038
0.119258
0.0441222
0.0474638
0.0471607
0.0600608
0.0611583
0.0491738
0.0491161
0.0506094
0.0523905
0.05714
0.0540081
0.0657927
0.0637523
0.0692208
0.0721347
0.0768433
0.0786503
0.0456585
0.0449447
0.0423631
0.0475729
0.0465223
0.0439286
0.0434544
0.0497167
0.0429094
0.0417911
0.0498498
0.0973059
0.294377
0.324317
0.260233
0.176716
0.19758
0.225335
0.0820357
0.0895074
0.0979474
0.087682
0.0919248
0.122685
0.10927
0.0871524
0.0904033
0.129305
0.137202
0.147586
0.158635
0.257659
0.211401
0.0650507
0.0491774
0.0496754
0.0593154
0.0612047
0.050286
0.0506705
0.0523627
0.0541236
0.0560351
0.0663928
0.0639626
0.0696927
0.0728347
0.0749041
0.0782349
0.0475254
0.0496678
0.0476117
0.0438726
0.043934
0.0454458
0.0467594
0.0447534
0.0509279
0.0485202
0.169915
0.222047
0.043437
0.0412702
0.304913
0.257193
0.255513
0.326934
0.265677
0.17739
0.199507
0.230036
0.0861815
0.0808368
0.0934813
0.0994577
0.0972087
0.107371
0.118065
0.0920539
0.0961632
0.127289
0.134558
0.147115
0.162411
0.318245
0.273408
0.319543
0.0649487
0.0524507
0.0511496
0.0581017
0.0604347
0.0523506
0.0522429
0.0538896
0.0560982
0.0628431
0.0655458
0.0683769
0.0715453
0.07466
0.0773511
0.0791724
0.05073
0.0507087
0.0453181
0.0450457
0.0462647
0.0476403
0.0493121
0.0529671
0.0500676
0.0451151
0.0510807
0.0556986
0.31422
0.260681
0.243283
0.192409
0.191702
0.331402
0.261553
0.17987
0.190323
0.209855
0.0906919
0.0845432
0.0826235
0.117015
0.102104
0.106039
0.0975871
0.101434
0.125649
0.133304
0.149907
0.164021
0.0870207
0.350381
0.329241
0.352834
0.0777268
0.0551248
0.0538545
0.0581752
0.0604453
0.0540305
0.053913
0.0560533
0.0628485
0.0654781
0.0682847
0.0713625
0.0739964
0.0759228
0.0790992
0.0798322
0.0532129
0.054194
0.0469656
0.046971
0.0482613
0.0496738
0.0508926
0.0548004
0.0517955
0.0508242
0.0469146
0.0479001
0.311106
0.166955
0.230566
0.222495
0.192826
0.334703
0.262779
0.175032
0.195203
0.215467
0.241861
0.0956993
0.0839858
0.0893884
0.0840318
0.103494
0.114226
0.108682
0.12574
0.138973
0.152621
0.160453
0.0879137
0.386854
0.371427
0.405529
0.0809004
0.0590792
0.0559638
0.0604228
0.0579751
0.0560394
0.0561971
0.062665
0.0653808
0.0709957
0.0679701
0.0733245
0.0758573
0.0759436
0.0787375
0.0821515
0.056871
0.056096
0.0573878
0.04892
0.04873
0.0508966
0.0524992
0.0535602
0.0530926
0.048764
0.0504319
0.316673
0.255876
0.144123
0.150031
0.205882
0.197877
0.174268
0.271596
0.331827
0.178324
0.194489
0.211276
0.236283
0.101053
0.0855576
0.0936483
0.0868775
0.0896802
0.110237
0.114315
0.106576
0.127834
0.140724
0.150769
0.164765
0.114229
0.425736
0.426209
0.439745
0.0927049
0.0628294
0.0580682
0.0606818
0.0582861
0.0580182
0.06324
0.0653626
0.0704025
0.0681895
0.0741608
0.0760722
0.0781836
0.0808139
0.0838558
0.060124
0.0598697
0.0596107
0.0555849
0.0509802
0.0510868
0.0525645
0.0534746
0.0544421
0.0507342
0.0545724
0.332287
0.280528
0.242757
0.220205
0.125446
0.133328
0.147221
0.189091
0.178081
0.162938
0.112964
0.273096
0.326601
0.331985
0.177865
0.194801
0.225571
0.211583
0.0993951
0.0881183
0.0924774
0.0893792
0.112206
0.119609
0.105151
0.165273
0.130088
0.137725
0.152394
0.113126
0.473093
0.48224
0.505283
0.0599302
0.0994886
0.064593
0.0611475
0.0607655
0.0666949
0.0651656
0.0716397
0.0720623
0.0693426
0.0750061
0.07838
0.0814372
0.0646472
0.0625503
0.0620266
0.0576443
0.0568252
0.0527316
0.0522501
0.0541413
0.0559709
0.0525815
0.0562046
0.0689927
0.0741642
0.276864
0.245261
0.214982
0.196168
0.120339
0.135278
0.150085
0.170769
0.160963
0.108479
0.0999264
0.0926451
0.0825023
0.0790683
0.316712
0.265745
0.316411
0.271536
0.166291
0.179113
0.192034
0.220965
0.0985759
0.0905874
0.0934058
0.120369
0.112729
0.105503
0.102385
0.152049
0.151899
0.129711
0.141208
0.136812
0.561921
0.529957
0.526399
0.0666898
0.101155
0.0631769
0.0643516
0.0721649
0.0683713
0.0746815
0.0773102
0.0802704
0.0648863
0.0643759
0.059975
0.0586213
0.0573937
0.054906
0.0544396
0.0561992
0.0607718
0.0546777
0.0761813
0.0696918
0.0729739
0.240222
0.219898
0.193322
0.175527
0.120687
0.137632
0.147274
0.15429
0.11371
0.0996839
0.102293
0.0776867
0.0909418
0.0802071
0.0844412
0.270056
0.251219
0.237679
0.216712
0.160549
0.174382
0.199627
0.149446
0.0968164
0.0934655
0.117314
0.108098
0.113227
0.106384
0.100771
0.142453
0.14388
0.130359
0.109712
0.615717
0.595848
0.585914
0.0835025
0.106016
0.0673846
0.0611308
0.0717542
0.0755896
0.078888
0.0673075
0.0623843
0.0612879
0.0601526
0.0581436
0.0566675
0.0559435
0.058617
0.0562866
0.0741112
0.0703321
0.211557
0.215162
0.197772
0.17387
0.157331
0.127472
0.135488
0.140605
0.116536
0.110487
0.102395
0.078811
0.0817585
0.0956394
0.0849412
0.0893226
0.224162
0.214856
0.211725
0.196732
0.140615
0.162656
0.171076
0.151435
0.194424
0.0963315
0.12077
0.11463
0.111044
0.10422
0.0994697
0.123612
0.130032
0.131213
0.115749
0.730887
0.686985
0.732712
0.133465
0.0708372
0.0790738
0.0747129
0.0781526
0.0650864
0.063498
0.0619533
0.0605186
0.0588309
0.0584204
0.0597647
0.058753
0.0741442
0.0679301
0.194005
0.195429
0.176158
0.155573
0.1426
0.125506
0.129216
0.116374
0.108725
0.101897
0.0777907
0.0812213
0.0959921
0.0856277
0.0902391
0.196333
0.189997
0.172801
0.126195
0.132678
0.142127
0.150054
0.175249
0.112162
0.107061
0.101981
0.117577
0.11505
0.122635
0.126125
0.855456
1.17245
0.321335
0.0750211
0.0880392
0.078115
0.0665036
0.0650156
0.0628517
0.0610208
0.0603374
0.0621975
0.0711032
0.0691893
0.175154
0.173412
0.156032
0.141084
0.130885
0.119481
0.111175
0.103882
0.0975483
0.0744834
0.0782483
0.0918788
0.0823183
0.0868735
0.171672
0.173263
0.15635
0.127904
0.133963
0.140934
0.12328
0.155992
0.108651
0.104318
0.112294
0.113359
0.118378
0.198895
1.66891
1.61394
0.57958
0.0801074
0.122177
0.0672455
0.0655821
0.0627105
0.0633863
0.0690038
0.0726282
0.0706923
0.156781
0.156541
0.14143
0.129762
0.12095
0.112623
0.105219
0.0989907
0.0758742
0.079843
0.0932562
0.0837555
0.0884257
0.154182
0.154669
0.142085
0.125249
0.129736
0.118804
0.141626
0.106208
0.10896
0.109898
0.112766
4.05688
0.331347
2.33271
2.47949
1.16914
4.4971
0.0682296
0.0658029
0.0670719
0.0668072
0.0771995
0.0734344
0.0713263
0.139985
0.140841
0.130337
0.120652
0.112196
0.10549
0.0990715
0.0773421
0.0806352
0.0940963
0.08502
0.088967
0.13751
0.137775
0.13022
0.119148
0.112973
0.127975
0.130351
3.27191
3.60156
0.635873
3.59795
3.58057
4.88538
3.96706
6.43334
0.0691852
0.0659337
0.0704062
0.0706082
0.09428
0.0744883
0.0709336
0.13114
0.130744
0.120701
0.112466
0.105464
0.0995873
0.0780783
0.0817625
0.094423
0.089892
0.0856633
0.129611
0.122246
0.113346
0.120803
0.12326
0.122457
2.21318
2.86066
3.18083
1.20747
4.51382
3.48154
6.2002
6.25898
0.0709381
0.0705044
0.0754159
0.134816
0.075358
0.07157
0.11844
0.118977
0.11166
0.104913
0.0994222
0.0779734
0.0825346
0.094641
0.0904024
0.0862713
0.122343
0.115437
0.116253
0.11843
0.116892
0.116214
1.93746
1.81002
2.49663
2.78426
3.44215
5.86302
4.10788
3.02884
5.86381
6.05942
0.0731589
0.0746844
0.0803108
0.0744933
0.0754618
0.0775517
0.114041
0.106965
0.102066
0.0968117
0.0814784
0.0818164
0.093736
0.0890156
0.0867671
0.115173
0.112629
0.113614
0.1119
0.110958
1.5236
1.47789
2.16404
2.3953
6.3108
2.9806
5.59526
5.4219
3.68324
2.58985
5.49525
5.85215
0.0749049
0.0774275
0.0775023
0.0788068
0.0819797
0.109998
0.105375
0.101391
0.0970382
0.0836365
0.084837
0.0936752
0.0902975
0.0875766
0.109164
0.107279
0.105298
6.14542
1.1937
1.2013
1.84528
1.98308
5.89553
2.58131
5.25542
5.15516
4.96535
3.23838
2.13139
5.09648
5.64063
0.0772138
0.0780761
0.0802059
0.0816224
0.104231
0.10242
0.0998781
0.096754
0.0841737
0.086286
0.0938318
0.0910668
0.0885804
6.73668
5.57127
0.934025
0.961486
1.51148
1.46829
5.43183
2.22563
5.10373
4.8024
4.7049
4.49119
2.74416
1.57444
4.65446
5.42226
7.73332
6.19716
5.00126
0.725798
0.737763
1.09828
0.59906
4.94336
1.88822
4.96102
4.68349
4.35599
4.24514
3.98879
2.11209
0.670548
4.12975
5.19132
8.43981
7.33121
5.6138
4.43766
0.548981
0.491945
0.398224
4.42929
1.55362
3.4977
4.651
4.2609
3.91307
3.76522
3.42515
1.0466
3.41838
9.75298
7.95948
6.86689
4.99711
3.87228
0.367089
0.127303
3.85904
1.3638
2.74132
3.05176
4.32784
3.83823
3.46219
3.23647
2.71288
2.17255
11.2493
8.99284
7.49139
6.33917
4.35535
3.27659
0.0832294
3.12212
1.42688
2.37747
2.63008
3.98908
3.40481
2.97486
2.57834
1.51234
11.9101
11.2479
8.1168
6.99974
5.69195
3.67445
2.56206
1.71903
1.3082
1.27815
2.0577
2.21942
3.62345
2.93472
2.37903
1.4841
12.1568
11.6011
11.0346
7.1724
6.48476
4.91518
2.88614
1.35724
1.48533
1.1987
1.14333
1.76382
1.8086
3.20545
2.35883
1.39295
8.17426
12.1514
11.07
10.6043
6.18236
5.89774
3.95902
1.65559
1.59759
1.38047
1.09208
1.01809
1.48099
1.38873
2.6675
1.41478
6.91213
8.05209
11.8909
10.3348
9.9523
5.15124
5.09641
2.58109
1.60919
1.48252
1.273
0.98447
0.895889
1.19419
0.949148
1.76072
6.28307
6.6168
7.70234
11.4224
9.48826
9.03127
4.29974
3.43163
1.51209
1.49314
1.36502
1.15979
0.870461
0.763202
0.869326
0.46876
6.29957
6.09967
6.19668
7.18098
10.735
8.57057
7.68934
3.1417
1.33094
1.40528
1.37476
1.24211
1.03575
0.740077
0.587385
0.403772
6.85421
6.09783
5.7845
5.70476
6.53217
9.79347
7.57509
5.35985
1.42722
1.21903
1.29607
1.25104
1.10837
0.889714
0.566445
0.262972
8.0683
6.54447
5.77195
5.37972
5.15857
5.76433
8.36845
6.01881
2.64725
1.27944
1.11041
1.18127
1.11654
0.95208
0.691105
0.250252
11.9809
7.93556
6.12265
5.36204
4.90072
4.54553
4.85219
5.7983
3.54037
2.30469
1.14511
1.00098
1.05553
0.959441
0.741502
0.334382
11.7323
11.9949
7.58617
5.63125
4.8809
4.33993
3.82
3.80574
4.95574
3.08104
1.99872
1.0201
0.88503
0.907581
0.747942
0.371147
11.0694
11.4264
11.7386
7.08148
5.08365
4.31871
3.65401
2.88866
5.13986
4.64462
2.6487
1.71436
0.897677
0.752539
0.706807
0.37703
9.7695
11.0584
10.8583
11.2707
6.48315
4.46929
3.6307
2.76351
5.23693
4.71754
4.32283
2.23239
1.4393
0.764134
0.576798
0.348455
8.42092
8.97896
10.802
10.0074
10.5398
5.80304
3.73705
2.72942
5.56612
4.7809
4.29225
3.98426
1.81867
1.15984
0.587301
0.259314
7.78155
7.95717
8.07662
10.2723
8.93464
9.41498
4.99484
2.78348
5.85965
5.12656
4.33429
3.86736
3.61862
1.39775
0.842416
0.26276
6.75354
7.37512
7.52402
7.11422
9.44878
7.62313
7.54126
3.87621
6.6521
6.26594
5.42422
4.67819
3.89327
3.43162
3.19916
0.951817
0.383025
6.13634
6.21794
6.90112
7.0799
6.09741
8.26959
6.08125
5.09137
5.08226
6.44236
5.93829
4.97191
4.22034
3.44418
2.9575
2.65531
0.456104
6.24878
5.56144
5.6368
6.35877
6.58544
5.07134
6.73909
3.75067
3.40926
4.53486
4.68568
6.22483
5.56945
4.4993
3.74161
2.95736
2.37278
1.72602
5.8466
4.9902
5.01992
5.72172
6.01866
4.29285
5.87726
2.94516
2.06759
4.31039
4.02615
4.25842
6.00319
5.16703
3.99682
3.21261
2.36041
1.40383
2.44225
3.56273
5.39501
4.42599
4.37654
4.9492
5.22847
3.38278
2.53821
1.63349
3.82454
3.54572
3.81487
5.77786
4.71743
3.43154
2.5524
1.35591
1.98638
3.13532
4.9153
3.86111
3.69308
3.99721
3.51352
2.18633
1.28407
3.3775
3.09097
3.34971
5.54634
4.18036
2.71247
1.43974
1.61969
2.74888
4.40887
3.26642
2.90129
2.62672
1.85772
1.0083
2.95773
2.64627
2.83217
5.30096
3.44652
1.48561
1.31468
2.39048
3.84371
2.55481
1.6794
1.55593
0.7862
2.54659
2.17951
2.16826
2.14594
1.05071
2.04464
3.11358
1.35927
1.3685
0.596177
2.1109
1.60588
1.04414
0.805792
1.68128
1.73074
0.399629
1.56799
0.662529
0.539052
1.23209
0.0959276
0.64665
0.148617
0.474817
0.0862871
0.084341
0.0856278
0.0856375
0.0870848
0.0868568
0.0875061
0.0875387
0.0882495
0.0827381
0.0838419
0.0842684
0.085468
0.0857855
0.086933
0.0875458
0.0918802
0.0933099
0.09465
0.0968894
0.0983383
0.0884445
0.0892436
0.0882733
0.0884321
0.0887419
0.0883791
0.0896063
0.0893372
0.0903769
0.101021
0.10218
0.0814157
0.08252
0.0831421
0.0842319
0.0848572
0.0858042
0.0867988
0.0878894
0.0888486
0.0898277
0.0909307
0.0922956
0.0940782
0.0955685
0.0986352
0.100129
0.105624
0.10637
0.0902313
0.0911046
0.0921595
0.0931221
0.0944975
0.0959434
0.0983188
0.089636
0.0900937
0.0896198
0.0896329
0.0905179
0.0898747
0.0918757
0.0913562
0.0927015
0.0981489
0.0999633
0.110614
0.112286
0.104858
0.104609
0.109696
0.0804111
0.0814373
0.0823019
0.0833111
0.0842612
0.0852603
0.0864642
0.0873955
0.0891238
0.090209
0.0916677
0.0929778
0.097015
0.098443
0.101471
0.102636
0.107158
0.108413
0.113543
0.115685
0.122026
0.122146
0.129126
0.0910777
0.091802
0.0927628
0.093781
0.0952509
0.0908135
0.0910863
0.0911648
0.090853
0.0924218
0.0916465
0.09512
0.094064
0.0933457
0.0956635
0.0993153
0.099546
0.104582
0.106207
0.125764
0.113798
0.121423
0.110573
0.11347
0.0800085
0.0809385
0.0820799
0.0830785
0.0843387
0.085257
0.0867471
0.0876458
0.0892628
0.0902247
0.0924703
0.0946023
0.102719
0.0998825
0.106141
0.108664
0.113097
0.114585
0.119453
0.129171
0.134827
0.135673
0.149398
0.152024
0.145725
0.154258
0.154835
0.195999
0.0920556
0.0928139
0.0936347
0.0945888
0.097469
0.096225
0.0920966
0.0921329
0.092779
0.0923017
0.0952382
0.0942257
0.093481
0.0996737
0.0983497
0.0959517
0.0983957
0.10029
0.248585
0.214687
0.307504
0.104698
0.105006
0.110552
0.112791
0.127366
0.129459
0.165333
0.144578
0.121923
0.127951
0.0807317
0.0813224
0.0829479
0.0835564
0.0853544
0.0858968
0.0878749
0.0885896
0.0917917
0.0910486
0.0953632
0.0967459
0.10159
0.103941
0.113479
0.111669
0.120885
0.129673
0.136654
0.137426
0.149265
0.714242
0.702269
0.493707
0.162245
0.171065
0.18634
0.192645
0.20249
0.217779
0.218372
0.491259
0.292855
6.43681
7.00333
6.85426
6.54015
7.16332
7.1853
6.95623
6.58285
0.093196
0.0935574
0.094559
0.0954939
0.0971855
0.0961145
0.093479
0.0932972
0.0952796
0.0944605
0.0939421
0.1019
0.100517
0.0992003
0.0980618
0.0967065
0.0996328
0.105657
0.101568
0.104959
6.03569
5.06829
1.86218
1.31936
0.772696
0.174842
0.249659
0.305673
0.564874
0.112775
0.113154
0.114143
0.113704
0.125815
0.127899
0.139705
0.136043
0.164148
6.22911
6.92003
4.54345
7.14383
7.20557
7.19018
5.4451
6.0784
6.1674
7.17412
0.0869506
0.0845358
0.0886733
0.0873226
0.0910741
0.0900716
0.0936828
0.0935056
0.0966146
0.096364
0.100432
0.100347
0.108079
0.111166
0.116726
0.115746
0.121442
0.14684
0.124595
0.159703
0.211113
0.203477
0.2476
0.248762
0.243954
1.28009
1.78647
3.42014
2.48522
1.29589
0.99661
0.356781
0.394871
0.499028
0.505215
1.02157
0.596201
0.580069
3.88683
6.05873
4.96668
5.2695
6.15822
6.68979
6.92242
6.9156
4.97655
4.92448
7.12846
7.08245
5.57526
5.79462
6.38222
7.01965
6.59968
6.96469
0.0944606
0.0946744
0.0955554
0.096852
0.0972286
0.0962144
0.0957139
0.0950039
0.0946379
0.103986
0.102515
0.101115
0.0999382
0.0988844
0.0978917
0.0975104
0.100506
0.100883
0.104795
0.105299
0.109654
0.104603
2.68338
4.52707
3.53015
5.9137
4.61585
1.6764
2.70604
1.43486
0.753129
0.113073
0.609694
0.200272
0.348184
0.255978
0.123336
0.120235
0.129015
0.124269
0.132198
0.130936
0.149129
0.143192
0.200508
6.24638
7.0875
5.94663
4.28944
4.70213
3.65268
7.32309
7.42649
7.24668
5.99584
4.52816
5.61471
0.18889
0.103212
2.11124
0.646622
0.135778
0.105395
0.124289
0.10521
0.11935
0.104645
0.117833
0.112411
0.109796
0.121493
0.120469
0.143024
0.175962
0.164945
0.201337
0.28326
0.252586
0.33665
0.66174
0.377477
0.407511
0.903184
1.02974
0.552111
0.485788
0.655936
0.633671
0.798818
0.79965
1.92857
2.54687
3.68283
2.97819
2.08566
1.51582
1.16546
1.16976
1.75775
1.31117
1.42971
4.93848
4.32193
5.15467
6.1694
5.86776
6.84958
6.64566
7.1051
7.01142
7.05393
5.22021
5.77681
6.9897
7.0038
6.84534
6.81367
6.51182
0.097686
0.0956964
0.095757
0.0966029
0.0971998
0.0964498
0.0961672
0.0983388
0.106113
0.104606
0.103011
0.101721
0.100582
0.0994377
0.0988004
0.0978643
0.108095
0.10574
0.107976
0.110326
0.108803
0.110229
0.101437
0.101335
0.101773
0.103443
0.113988
0.108249
0.109738
0.105487
4.62936
4.09901
3.03574
0.983924
2.53525
1.74138
0.11945
0.132963
0.131649
1.09843
0.262806
0.561206
0.363894
0.144244
0.13985
0.152521
0.148549
0.176073
0.165163
0.276832
4.41616
6.6139
7.2225
6.23373
5.30828
7.45517
3.35777
3.90598
2.72676
7.66071
7.44865
6.66579
5.50176
4.00031
4.74347
4.74001
1.19319
0.34056
4.56671
3.58415
0.686523
0.334995
0.521592
0.254468
0.40153
0.216264
0.342338
0.182565
0.247493
0.445718
0.780586
0.554857
0.96291
0.620942
0.758326
1.34631
1.67202
1.83007
1.18532
1.19743
1.86093
2.09383
1.24464
1.37538
1.67308
1.5841
1.95986
1.67453
3.94931
2.76638
3.31132
3.14337
2.68388
2.53689
2.90896
2.19029
2.70142
5.38858
4.52449
6.7439
6.05944
6.36838
7.07479
6.97257
6.92196
7.00145
6.52612
6.61395
0.10997
0.108458
0.0970663
0.0982453
0.0975382
0.0969995
0.0970139
0.0985758
0.0996986
0.104782
0.102922
0.102217
0.10075
0.100236
0.0991504
0.0988472
0.0980961
0.106734
0.104837
0.105984
0.107102
0.105414
0.106762
0.101122
0.101724
0.103029
0.10565
0.120688
0.113595
0.114495
0.108823
1.7992
2.65266
3.5284
0.129591
0.142661
0.141355
0.163976
0.159327
0.784309
1.83941
0.360335
0.709628
0.198804
0.182704
0.274037
0.236374
0.369599
3.59634
5.12919
4.76323
6.87853
6.98547
7.36284
7.79268
7.7184
2.65554
3.60397
7.40743
6.47102
5.72656
4.05228
4.76359
4.77076
2.08617
4.79476
5.11643
5.63872
3.79038
2.39495
5.7865
6.27725
3.38026
1.73726
2.6209
1.23133
2.01879
1.02328
1.35989
1.58046
1.2071
2.18775
1.79524
1.73113
1.70388
1.82586
2.77662
2.87105
2.99922
3.3161
2.53555
2.37399
3.40266
3.5911
2.57473
2.82588
3.30479
3.1157
3.49701
4.70746
4.18929
4.54827
3.71788
4.26376
4.23182
3.99027
4.41091
6.3712
5.70645
6.9704
6.81805
6.91186
6.92609
6.35236
6.45662
0.111827
0.109318
0.107507
0.106011
0.0985781
0.0984298
0.0987405
0.0995342
0.100676
0.103867
0.102439
0.101764
0.100652
0.100238
0.0994199
0.0994641
0.103702
0.104573
0.103088
0.104272
0.103446
0.104478
0.102071
0.102168
0.104006
0.109888
0.105713
0.102605
0.130505
0.121547
0.122576
0.115444
0.138664
3.1581
2.29793
0.154798
0.15153
0.184854
0.179693
0.263477
0.313019
0.249719
0.791064
2.07723
0.956605
0.49962
0.416855
0.863574
5.07866
4.23319
7.38325
6.75923
7.96506
7.84951
7.56544
7.28741
6.88233
6.537
0.210172
0.70519
4.68036
5.55241
1.28225
3.89453
5.77813
5.47015
6.3083
6.0584
5.529
6.2088
5.92865
5.3124
5.37356
3.55651
4.28991
3.2962
2.92011
2.89801
4.23712
3.34013
4.18603
3.51518
3.69373
4.28973
4.65809
4.60096
4.71089
4.25141
4.1176
3.761
4.91991
5.09272
4.25964
4.4456
5.11543
5.0107
5.81502
6.07999
5.63476
5.5061
5.80998
5.48555
5.69696
6.82122
6.70138
6.68381
6.72486
6.07286
6.17633
0.0882664
0.109138
0.112428
0.111046
0.109207
0.106993
0.105569
0.104043
0.0996427
0.0998229
0.100169
0.100278
0.102637
0.102369
0.101658
0.10091
0.10042
0.10006
0.101264
0.102194
0.101461
0.102485
0.102115
0.103026
0.10225
0.106261
0.107073
0.116207
0.105179
0.106738
0.142619
0.126395
0.130101
0.117123
0.159517
0.18649
0.168356
4.47251
2.79459
0.250453
0.210606
0.491232
0.409838
1.21261
1.04766
0.8873
2.3259
3.06015
1.66129
7.34231
6.22819
8.09836
8.21489
7.96151
7.56349
7.10452
6.74571
0.147654
0.452853
4.10862
6.35624
0.843939
2.38478
6.33675
6.1556
5.94286
6.54575
6.07203
5.58296
6.94257
6.2369
6.87144
6.45785
6.04479
6.03674
5.64056
4.70224
4.75385
5.93711
5.41749
5.16833
5.39454
5.61148
5.49976
5.75634
5.68171
5.63641
5.58246
5.88753
5.13214
5.41445
5.92311
5.91103
5.6387
5.73432
6.03633
6.07633
6.29389
6.22853
6.63643
6.40282
6.3814
6.4619
6.51022
5.76735
5.92035
0.0813062
0.0851284
0.0894615
0.108327
0.111028
0.110166
0.108877
0.108317
0.106996
0.105156
0.102738
0.104171
0.107606
0.108723
0.101443
0.100387
0.0997177
0.0998975
0.100681
0.0999318
0.0998274
0.100273
0.100896
0.100628
0.101576
0.101466
0.102139
0.103062
0.105521
0.108911
0.114489
0.11723
0.110742
0.139045
0.16308
0.125617
0.142393
0.177417
0.231282
0.200763
0.250741
0.389858
0.285114
6.41044
5.35247
1.12194
0.822408
2.53213
1.97871
4.38784
5.80245
3.95223
8.41839
8.36866
8.51023
8.03196
7.71036
7.19671
0.132607
0.31992
3.27303
6.21649
0.558849
1.58594
6.09932
6.91303
5.33418
5.50434
6.67883
5.91889
6.8443
6.6116
5.25084
5.76538
6.50721
6.38554
6.50629
6.22901
6.43522
5.7959
5.99377
6.12473
6.12154
5.87704
5.92093
5.76591
5.7962
5.75978
5.65387
5.69986
5.57777
5.4239
5.41712
5.94672
5.93595
5.96752
5.85144
6.00729
5.95823
5.98527
5.86747
5.99547
6.23285
6.29586
6.00683
5.58529
5.7508
0.0798499
0.0815291
0.0836315
0.0882481
0.091594
0.107453
0.107288
0.106747
0.105892
0.105941
0.101945
0.103819
0.103085
0.104861
0.105327
0.105129
0.104386
0.105593
0.103394
0.103374
0.101402
0.101474
0.103491
0.100556
0.100017
0.100393
0.100161
0.101777
0.10029
0.100536
0.100848
0.101112
0.101414
0.101963
0.102342
0.105697
0.111405
0.107698
0.115563
0.124414
0.122082
0.130381
0.158476
0.182933
0.142521
0.16196
0.211998
0.27727
0.6773
0.612182
0.483645
0.913132
1.83325
1.79427
8.61785
7.78595
4.2524
4.42919
6.75036
7.9197
6.75484
9.1972
8.7194
8.4927
8.05726
0.125215
0.244885
2.48021
5.11475
0.385995
1.08102
5.20519
7.0407
5.64782
5.15754
6.79139
6.34769
5.66369
5.30652
4.96198
4.94022
6.01071
6.12618
5.20825
5.65343
5.40155
5.83874
5.75969
5.79515
5.78941
5.42194
5.45118
5.01486
5.00207
4.89213
5.17021
4.77347
4.62993
4.06476
3.69952
4.36653
4.45189
5.39105
5.814
5.81713
5.30356
5.40265
5.45399
5.40807
5.04291
5.47747
0.104818
0.0799015
0.0807014
0.0819049
0.0839223
0.0863224
0.0905706
0.0940987
0.0809467
0.0809734
0.0825053
0.082259
0.0844167
0.0837402
0.0994838
0.0998619
0.0976155
0.0980873
0.095614
0.0962186
0.0934578
0.0942582
0.086642
0.0856737
0.088993
0.087698
0.0912487
0.0921062
0.0898989
0.104495
0.103983
0.103446
0.103806
0.102818
0.102498
0.103224
0.102315
0.102511
0.101934
0.103083
0.100439
0.100736
0.0985461
0.0988951
0.102416
0.100984
0.102221
0.100842
0.101601
0.101814
0.10161
0.101807
0.102012
0.102695
0.103011
0.103097
0.102796
0.103466
0.109278
0.105128
0.118748
0.112478
0.123786
0.137539
0.13294
0.148645
0.186399
0.23488
0.168135
0.200633
0.292475
0.635312
3.15296
2.3906
3.22751
1.4646
3.14163
5.2123
6.01713
9.53962
9.41342
8.34042
9.4734
8.53675
9.64774
8.86239
0.118432
0.195519
4.60844
1.71763
2.76452
0.285241
0.752174
6.18858
6.87946
5.79496
5.20491
6.58339
6.13323
6.62717
4.77334
4.68338
4.68907
5.27869
5.18843
4.42674
4.6645
4.67999
4.42978
4.85235
4.99538
4.53547
4.47186
4.07643
4.01888
3.53977
3.6096
3.83252
2.8645
2.87759
2.57348
2.58381
3.31421
4.85873
4.73325
3.6142
4.18025
4.02316
0.104957
0.0928249
0.096399
0.0817868
0.0827035
0.0843197
0.0866048
0.0892533
0.0826013
0.0829238
0.0837883
0.0838489
0.0852591
0.0851758
0.0966906
0.0972925
0.0948327
0.0956539
0.0928284
0.0938452
0.090728
0.0920254
0.0870402
0.0866889
0.0887907
0.0901224
0.0883496
0.102436
0.101959
0.10172
0.102488
0.102299
0.100005
0.100502
0.100096
0.10115
0.0982451
0.0987094
0.0964144
0.0969364
0.102126
0.10278
0.102459
0.104146
0.10358
0.103977
0.104323
0.103832
0.10464
0.105741
0.104368
0.104615
0.104148
0.112442
0.107891
0.108361
0.126993
0.117311
0.133892
0.156675
0.151222
0.177491
0.208973
0.421966
0.204592
0.27525
0.615539
1.98704
6.16328
6.90061
6.07567
7.3193
3.96928
6.8117
8.47956
9.42273
10.4191
10.1274
10.2237
0.115973
0.145852
0.200917
2.92351
4.90785
1.1163
2.17694
0.444521
5.46929
6.40793
5.35435
4.77199
5.88379
5.5021
6.33779
6.47723
6.05859
5.81057
4.21266
4.36551
4.39344
4.28828
3.94382
4.01381
3.92847
3.81742
3.96297
3.98696
3.62792
3.60145
3.11156
3.19174
2.53067
2.64745
2.09505
2.14648
1.90803
1.82303
3.29269
1.83757
2.80836
4.94083
0.0960402
0.101921
0.0893572
0.0931128
0.0838991
0.0852554
0.087193
0.0845402
0.0849121
0.0854567
0.0855396
0.0866565
0.0866509
0.0947541
0.0953831
0.0931137
0.0938997
0.091391
0.0922772
0.0897601
0.0908066
0.0882062
0.0892989
0.0879209
0.100931
0.100875
0.100874
0.100672
0.0982254
0.099055
0.098776
0.100148
0.0965681
0.0972837
0.0949501
0.095669
0.102735
0.102125
0.104914
0.10395
0.109267
0.107572
0.110355
0.109463
0.10667
0.107688
0.110604
0.10839
0.106327
0.112145
0.107606
0.107727
0.121185
0.120593
0.13932
0.137178
0.174923
0.171497
0.232786
0.197762
0.317722
0.728345
0.26145
0.400161
1.72953
4.22723
6.45855
9.5046
9.57897
9.57721
9.78333
10.7237
10.6647
10.9652
0.70979
0.105665
0.109733
0.138025
0.181548
0.332196
3.99358
1.61568
2.42639
5.61028
4.40941
4.37391
4.83351
5.62524
6.04338
4.82454
5.30253
6.14285
6.0873
5.61304
5.18762
3.78879
3.97598
3.6214
3.6396
3.52903
3.54845
3.41326
2.95366
3.2299
3.19762
2.44871
2.63799
1.98456
2.15579
1.63662
1.75711
1.49821
1.47358
0.0938956
0.0973912
0.0864636
0.0881838
0.0909936
0.0862998
0.0877654
0.0870142
0.0874332
0.0878752
0.0879424
0.093334
0.0942506
0.0916771
0.0929245
0.0903377
0.0914924
0.089036
0.0902304
0.0890403
0.101334
0.0999628
0.100115
0.100505
0.0973036
0.0981382
0.0998361
0.098254
0.0957118
0.0966616
0.0943774
0.0951851
0.105276
0.104022
0.104051
0.107986
0.106118
0.114917
0.114248
0.113486
0.115829
0.122396
0.119661
0.120121
0.11733
0.116249
0.112354
0.110092
0.120132
0.116746
0.123322
0.146937
0.136993
0.216318
0.216968
0.170834
0.202869
0.311587
0.314629
1.00612
2.0364
0.896376
3.81876
5.79098
7.69361
10.4091
11.7777
11.5465
11.501
1.49563
2.00921
0.0999472
0.539242
1.02728
0.10782
0.111937
0.11901
0.153573
0.196231
0.316562
3.90115
3.15447
5.57896
5.13475
3.91077
4.27551
5.87297
5.97455
4.28929
4.80368
5.75769
5.5894
4.93931
3.37366
3.55622
2.9552
3.10186
3.11386
2.9644
2.52391
2.65799
2.0908
2.27475
1.75614
1.89736
1.43176
1.60795
0.0965885
0.0890805
0.0922271
0.0943866
0.0947085
0.0884553
0.0900406
0.0886775
0.0895391
0.089346
0.0896048
0.0927243
0.0938907
0.0916055
0.0925774
0.0904044
0.0914575
0.0903344
0.0943906
0.100275
0.100002
0.101445
0.0992537
0.0981085
0.0970253
0.101699
0.0971245
0.0962066
0.096125
0.105106
0.103395
0.106931
0.109554
0.109699
0.114794
0.113585
0.123173
0.12533
0.12837
0.127294
0.140589
0.137736
0.135531
0.125096
0.123199
0.133552