/*--------------------------------*- C++ -*----------------------------------*\
  =========                 |
  \\      /  F ield         | OpenFOAM: The Open Source CFD Toolbox
   \\    /   O peration     | Website:  https://openfoam.org
    \\  /    A nd           | Version:  8
     \\/     M anipulation  |
\*---------------------------------------------------------------------------*/
FoamFile
{
    version     2.0;
    format      ascii;
    class       volScalarField;
    location    "12000";
    object      p;
}
// * * * * * * * * * * * * * * * * * * * * * * * * * * * * * * * * * * * * * //

dimensions      [0 2 -2 0 0 0 0];

internalField   nonuniform List<scalar> 
4109
(
-0.00551911
-0.0177663
-0.00878837
-0.0287341
-0.0298719
-0.018517
-0.0286841
-0.0146577
-0.039191
-0.0396608
-0.0389825
-0.0429222
-0.00912341
-0.022874
-0.0317493
-0.046323
-0.0506838
-0.0466952
-0.0450612
-0.0419497
-0.00271232
-0.0324333
-0.0327355
-0.05374
-0.0545825
-0.0622126
-0.00304049
-0.0082586
-0.00559357
-0.0520188
-0.0455561
-0.0470222
-0.0299833
-0.0868698
-0.0618071
-0.0572068
-0.0622108
-0.0762187
-0.0165343
-0.00504406
-0.000180634
-0.0132439
0.000370279
-0.0560859
-0.0517972
0.0902582
-0.0558564
-0.0470809
-0.0550409
-0.0764276
-0.0682985
-0.0658419
-0.0716364
-0.0884022
-0.0239692
-0.010966
-0.00519829
0.0150116
-0.00958182
-0.0210212
-0.0678244
0.0650813
-0.061623
-0.0561839
-0.0523032
-0.0337092
-0.0585237
-0.0519307
-0.0577268
-0.0536814
-0.105319
-0.080394
-0.125612
-0.125502
-0.127079
-0.0299611
-0.0327596
-0.0231542
-0.0123313
-0.0206113
-0.0117977
-0.0150718
-0.0160053
-0.0261774
0.0156367
-0.206772
0.123734
-0.236275
-0.00806066
-0.0811817
-0.0712143
-0.0614959
-0.0557019
-0.0533363
-0.0540874
0.0316529
-0.0530285
-0.0620123
-0.125364
-0.108774
-0.0978342
-0.139415
-0.1373
-0.145533
-0.151033
-0.0344371
-0.0374283
-0.0399138
-0.0230631
-0.00477174
0.0639433
-0.0153712
-0.0156198
-0.0236607
-0.030222
-0.57898
0.112123
0.0118664
-0.00549514
-0.309714
-0.120344
0.261545
-0.0882506
-0.0777298
-0.0695269
-0.0562366
-0.0550339
-0.0464351
-0.0744109
-0.0632845
-0.056943
-0.119832
-0.111585
-0.148538
-0.133418
-0.178064
-0.166454
-0.0416027
-0.0475721
-0.0504274
-0.0340274
0.00853419
0.05958
-0.0129571
-0.0243087
-0.0271616
-0.0345398
0.0879768
0.0820175
-0.215336
-0.100481
-0.137512
0.0954461
-0.0861896
-0.0841188
-0.0756684
-0.0600881
-0.0485966
-0.0437195
-0.0396117
-0.00604775
-0.0286302
-0.108915
-0.0999415
-0.14801
-0.123333
-0.166226
-0.181392
-0.214675
-0.0519881
-0.0581098
-0.0627542
-0.0509193
0.00797342
0.0295668
-0.0198817
-0.0237475
-0.0259103
-0.0427871
0.0191933
-0.158053
0.0162176
-0.0696987
-0.0838173
-0.0218401
-0.0802959
-0.0852312
-0.0723083
-0.0458567
-0.0460229
-0.0281092
-0.0138442
-0.0106961
-0.0929987
-0.100402
-0.138515
-0.111902
-0.157367
-0.185237
-0.216265
-0.256726
-0.0663102
-0.0724886
-0.0756658
-0.0670343
-0.0157319
0.00398462
-0.0100902
-0.0119401
-0.0241741
-0.0567917
-0.0928325
-0.103646
-0.0846865
-0.0154264
-0.0943413
-0.0462614
-0.0767801
-0.0781666
-0.0944545
-0.0487031
0.0960976
0.0668192
-0.0807199
-0.0858954
-0.127621
-0.0966657
-0.147249
-0.178748
-0.215536
-0.256288
-0.302548
-0.0824556
-0.0866526
-0.0872687
-0.0800856
-0.00853004
0.0294228
0.00992616
0.0132274
-0.0989595
-0.0381503
-0.0735904
-0.063858
-0.063064
0.0545828
-0.138815
-0.208918
-0.052578
-0.0850045
-0.0603588
-0.0900513
0.0604728
0.067526
-0.0632614
-0.0654719
-0.111547
-0.0766343
-0.130946
-0.169765
-0.20645
-0.249019
-0.298301
-0.349484
-0.104214
-0.0950643
-0.0918156
-0.116299
0.0209797
0.101315
-0.017296
-0.113202
-0.0906373
-0.061631
-0.175193
-0.129471
-0.231199
0.0634925
-0.197082
0.0101099
1.07809
-0.0565124
-0.0102341
-0.337548
-0.0964539
-0.0535674
-0.0290423
-0.086202
-0.0442667
-0.108792
-0.152933
-0.196007
-0.23729
-0.285759
-0.333304
-0.370269
-0.382941
-0.113543
-0.116814
-0.108191
-0.13408
-0.13049
0.0198075
0.100883
-0.0553845
-0.107449
-0.0841869
-0.0650464
-0.222311
-0.0283556
-0.0483624
0.402683
0.050105
1.08397
1.12372
1.13624
1.02864
1.02888
0.970463
-0.661616
-0.249111
-0.148088
-0.112456
0.0147439
-0.0463687
-0.0386947
-0.0805079
-0.131944
-0.177993
-0.37103
-0.226028
-0.271867
-0.322301
-0.394436
-0.400677
-0.411473
-0.386423
-0.136892
-0.13642
-0.153371
-0.148408
-0.125053
-0.025608
-0.0109056
-0.0909377
-0.103896
0.335398
0.118137
1.01262
-0.105031
1.19984
1.16357
1.16965
1.07775
1.19668
1.21865
-0.314692
-0.362263
-0.329323
0.946691
0.92202
0.993074
0.909668
1.01658
0.109462
0.164708
0.161046
0.0235207
-0.0273171
-0.399083
-0.104626
-0.108901
-0.155067
-0.204728
-0.359983
-0.260833
-0.310784
-0.437636
-0.418973
-0.424624
-0.437538
-0.427223
-0.437862
-0.166474
-0.159403
-0.174269
-0.165227
-0.142004
-0.122688
-0.0966698
-0.153449
-0.104097
0.77854
0.616182
1.2448
1.23207
1.15619
1.27705
1.30566
-0.247278
-0.192387
-0.194869
-0.48441
-0.319396
0.827175
0.81218
0.842588
0.942111
1.08285
-0.0892821
0.446096
0.435976
0.0324357
-0.0787609
-0.394246
-0.420838
-0.114469
-0.130848
-0.173668
-0.234254
-0.354238
-0.302694
-0.472948
-0.450997
-0.484051
-0.474534
-0.518023
-0.597338
-0.197888
-0.185693
-0.120151
-0.203097
-0.178615
-0.158256
-0.138451
-0.223421
-0.108684
-0.0777706
-0.10479
-0.263072
1.20502
1.32594
1.32303
1.23145
1.37111
1.40716
-0.797752
-0.0184166
0.188021
-0.081284
-0.0973205
0.629674
0.410349
-0.313566
-0.168636
0.71641
0.842818
0.987734
1.1651
-0.155415
0.024105
0.132288
-0.0272261
-0.101539
-0.400923
-0.445763
-0.128742
-0.143982
-0.191633
-0.269369
-0.354375
-0.528257
-0.491331
-0.552813
-0.55341
-0.65504
-0.867366
-0.23193
-0.244757
-0.216001
-0.123048
-0.134634
-0.174449
-0.193958
-0.150521
-0.245259
-0.215771
-0.521869
-0.250494
-0.239589
-0.0475199
1.25015
1.23363
1.16547
1.42901
1.42568
1.32473
1.48584
1.5393
-0.632116
-1.1952
0.045385
0.200359
0.0721718
0.402815
0.584342
-0.0990924
0.0133434
0.711791
0.87066
1.07812
1.27825
-0.257039
-0.225489
-0.229232
-0.0574437
-0.046837
-0.101262
-0.414264
-0.477028
-0.136451
-0.160597
-0.225618
-0.323227
-0.539808
-0.597553
-0.643695
-0.666878
-0.869433
-1.17151
-1.45094
-0.269868
-0.282446
-0.145791
-0.140721
-0.165225
-0.185309
-0.209498
-0.281825
-0.242536
-0.202738
-0.0787273
0.36641
1.32562
1.3023
1.23978
1.07003
1.16185
1.54986
1.55075
1.43836
1.59975
1.63095
-0.393896
-0.997907
-1.71261
0.550731
0.253625
0.353295
0.12981
0.184889
0.731262
0.967491
1.22458
1.41146
0.302627
-0.185559
-0.252057
-0.261189
-0.101031
-0.0211857
-0.0519457
-0.394011
-0.477858
-0.198453
-0.135129
-0.285667
-0.567952
-0.663822
-0.756088
-0.82979
-1.09978
-1.3882
-1.76779
-2.05779
-0.315341
-0.320795
-0.120828
-0.147893
-0.166047
-0.187213
-0.223595
-0.317974
-0.283342
-0.244872
-0.0486689
0.0239469
1.43185
0.967921
1.34163
1.27479
1.14732
1.67643
1.68075
1.56807
1.72245
1.73618
1.70149
-0.110399
-2.1766
-0.695693
-1.36902
0.337193
0.548044
0.369704
0.825009
1.15494
1.385
1.5622
0.02823
-0.113637
-0.173774
-0.141457
-0.074905
0.0940012
0.0348795
-0.481335
-0.371485
-0.264246
-0.18241
-0.601598
-0.73673
-1.00261
-0.872859
-1.30747
-1.96691
-1.62628
-2.26196
-2.49962
-0.359578
-0.356524
-0.355726
-0.134698
-0.155801
-0.195309
-0.246859
-0.321022
-0.282291
-0.0871925
-0.073294
1.5551
1.43172
0.823076
0.955802
1.33533
1.21935
1.04426
1.79477
1.78982
1.70888
1.84584
1.84017
1.8166
0.159247
-2.72869
-0.336197
-1.78264
-0.950527
0.495326
0.65858
0.394381
1.02791
1.33454
1.55787
1.73
0.020053
-0.0201909
-0.0981214
-0.101837
0.0297703
0.17875
-0.00185847
-0.511135
-0.358589
-0.26855
-0.680239
-0.835984
-1.16719
-1.00309
-1.5554
-1.9633
-2.32567
-2.73471
-3.09666
-0.400911
-0.393527
-0.396048
-0.36477
-0.14205
-0.163167
-0.218355
-0.281004
-0.323132
-0.0767728
-0.0420968
1.67768
1.58287
1.51706
1.41454
0.634651
0.815293
0.926384
1.29239
1.15707
1.00559
0.422147
1.88451
1.87224
1.79088
1.85981
1.95483
1.91877
1.95463
0.0572474
-2.27488
-0.508138
-1.31439
0.657098
0.862857
0.429394
1.91286
1.22044
1.53122
1.75981
0.0455982
-0.0417507
-0.0818342
-0.0519674
-0.163506
0.0330179
0.0559719
-0.533436
-0.345417
-0.895973
-0.758085
-1.31817
-1.66337
-1.15496
-2.21126
-2.84226
-3.36269
-0.416231
-0.449808
-0.444693
-0.415478
-0.373133
-0.156814
-0.182076
-0.254309
-0.324346
-0.0770796
-0.0296348
-0.396551
-0.339526
1.69514
1.61901
1.50279
1.37955
0.64337
0.811349
0.945357
1.23294
1.08883
0.456331
0.208069
0.00842361
-0.159868
-0.274326
1.91063
1.94409
1.8787
1.80038
2.09566
2.00663
2.0367
2.00001
-0.0355443
-1.73922
-0.792494
1.04824
0.783974
0.642223
0.382508
2.20316
1.98363
1.44654
1.7803
0.0311345
-0.110538
0.0176754
0.498298
-0.351052
-0.0489858
-0.724609
-0.493341
-1.56038
-1.15066
-1.92888
-2.78841
-3.50373
-0.464232
-0.490544
-0.474084
-0.43373
-0.378892
-0.17708
-0.220504
-0.30353
-0.0573833
-0.0712886
-0.333947
-0.440394
-0.371047
1.71402
1.60606
1.47785
1.32228
0.661654
0.834371
1.00267
1.15677
0.497039
0.254715
0.334031
-0.330804
0.0552711
-0.244347
-0.113854
1.89919
1.96486
1.81806
2.03615
2.25047
2.12705
2.08114
2.38175
-0.247184
-1.14
1.28124
1.15729
1.02123
0.999787
0.319977
2.07151
2.34366
1.78103
0.219211
0.148269
0.901543
0.56627
-0.251002
-0.390961
-0.87691
-0.564803
-1.67067
-2.56245
-3.49801
-0.519106
-0.532594
-0.505439
-0.4515
-0.368864
-0.228856
-0.280344
-0.0935672
-0.10678
-0.410981
-0.520158
1.83132
1.71873
1.58641
1.42847
1.23828
0.691697
0.884517
1.06008
0.535114
0.378817
0.189327
-0.416077
-0.367232
0.0385823
-0.278002
-0.137335
1.92416
2.00411
1.94481
2.12186
2.55421
2.39932
2.23111
2.531
1.94681
-0.48365
1.71688
1.59075
1.43881
0.940363
0.234382
2.36226
2.20645
2.52617
0.198207
0.636237
2.16091
0.458425
0.476748
-1.23373
-0.768392
-2.15787
-3.33661
-0.587029
-0.581665
-0.544684
-0.462286
-0.298014
-0.362454
-0.155465
-0.149053
-0.52189
-0.627586
1.83643
1.71222
1.55027
1.33482
1.13105
0.739084
0.935419
0.573952
0.382132
0.187875
-0.503521
-0.441157
0.000194297
-0.33416
-0.183014
2.08372
2.02866
2.283
2.93888
2.71638
2.73413
2.55353
2.00288
1.88096
1.55932
0.983565
2.28391
2.72095
3.03323
0.121138
0.849584
-0.129418
-0.197968
-1.67405
-0.96291
-2.98703
-0.655653
-0.645757
-0.590361
-0.295475
-0.45406
-0.346293
-0.648104
-0.720337
1.69418
1.84747
1.45838
1.204
0.998487
0.783476
0.603276
0.39516
0.171196
-0.626269
-0.55468
-0.055565
-0.432166
-0.262165
2.13771
2.2339
2.52645
3.24884
2.98231
2.83346
3.49521
2.04461
2.12934
1.73264
2.66902
3.11726
3.54217
-0.208058
0.081451
0.121559
-0.195077
-2.39539
-1.35319
-0.746094
-0.717157
-0.486962
-0.603246
-0.620933
-0.760488
-0.842775
1.63029
1.82898
1.32165
1.07376
0.837279
0.638477
0.401885
0.141189
-0.753668
-0.684968
-0.120172
-0.550493
-0.357184
2.25315
2.42307
2.80926
3.51108
3.17324
3.92374
2.02948
2.44913
3.13025
3.71755
4.23676
-32.1604
-0.239565
0.28471
0.336569
-0.404073
-31.4202
-0.85249
-0.764745
-0.888807
-1.00581
-0.709512
-0.912053
-0.99344
1.75139
1.51223
1.19664
0.910276
0.689386
0.412355
0.106012
-0.924123
-0.853482
-0.198323
-0.699539
-0.474864
2.65416
2.34253
3.29012
3.97101
4.59888
2.52073
2.0756
-34.2403
-32.1606
-0.147941
0.149656
0.193675
-29.3897
-31.2947
-31.657
-0.98913
-1.04
-1.17251
-1.19754
-0.824946
-1.11763
-1.19047
1.71651
1.41367
1.03308
0.779238
0.429896
0.0515766
-1.17491
-1.09395
-0.311414
-0.63848
-0.905893
3.09204
3.90917
4.7334
2.93843
2.51727
2.07909
-35.2219
-34.3094
-32.1613
-0.503878
-28.7988
-31.035
-33.8523
-30.8683
-1.32367
-1.4951
-1.54135
-1.34412
-1.42997
-1.46557
1.64131
1.24319
0.941262
0.470009
-0.00762043
-1.56708
-1.43719
-0.449017
-0.843105
-1.17662
3.75831
4.71494
2.85151
3.50993
2.52584
2.06903
-36.0573
-35.3687
-34.343
-32.1453
-34.9168
-27.3716
-28.5572
-30.7822
-33.9881
-30.6564
-1.76585
-1.98077
-2.32045
-1.92786
-1.76927
-1.93919
1.51358
1.01726
0.454123
-0.102834
-2.15646
-1.86643
-0.628256
-1.10131
-1.51613
4.54758
3.21387
4.20035
2.76771
2.20231
-36.0674
-35.4934
-34.3593
-32.125
-33.7239
-35.1572
-27.5159
-27.373
-28.4287
-30.555
-33.902
-30.6418
-2.30499
-2.89573
-2.43824
-2.56369
-2.6999
1.60737
1.00502
0.377144
-0.258467
-2.53291
-2.25132
-0.862574
-1.40878
-1.88464
3.7243
3.13596
2.45529
-38.6464
-35.9423
-35.5799
-34.3692
-32.1019
-33.7926
-35.3202
-25.4047
-27.5542
-27.3421
-28.3365
-30.3479
-33.7768
-30.5616
-3.21644
-3.36468
-3.41146
-3.36268
1.74573
1.00951
0.259398
-0.472749
-3.13237
-2.76599
-1.15601
-1.77308
-2.31522
-41.4809
-38.7535
-35.8259
-35.6413
-34.3806
-32.0793
-33.9283
-35.4796
-24.9741
-25.4236
-27.5841
-27.294
-28.2643
-30.1627
-33.633
-30.3936
-46.1741
-41.6707
-38.8258
-35.739
-35.6865
-34.3945
-32.0563
-34.0424
-35.6518
-20.9994
-25.1544
-25.4388
-27.5875
-27.2671
-28.1925
-30.0437
-33.4849
-30.1919
-48.8747
-46.0089
-41.7765
-38.8861
-35.6807
-35.7217
-34.4108
-34.1283
-35.841
-25.331
-20.8017
-25.2871
-25.4381
-27.5721
-27.2564
-28.1158
-33.3655
-94.0857
-48.4133
-45.9732
-41.8504
-38.9155
-35.6426
-35.7444
-34.1784
-36.0154
-20.0815
-26.1121
-20.8104
-25.3516
-25.4365
-27.5473
-27.2623
-33.3121
-30.7276
-103.371
-47.27
-46.0213
-41.9056
-38.9209
-35.6233
-34.1792
-21.6754
-20.201
-26.9367
-20.8397
-25.3762
-25.437
-27.5223
-27.2692
-44.7728
-31.1431
-112.308
-46.0136
-46.0924
-41.9335
-38.91
-34.1486
-20.9368
-21.7421
-20.2702
-27.7229
-20.8745
-25.3784
-25.4437
-27.5127
27.2908
-52.366
-30.8419
-120.371
-44.7434
-46.1547
-41.9387
-38.8855
-20.8894
-20.8942
-21.8204
-20.3415
-28.4516
-20.9192
-25.372
-25.4517
34.8901
30.389
-60.8389
-30.3282
-127.468
-43.4579
-46.1512
-41.9206
-20.4705
-20.8337
-20.8538
-21.8755
-20.4274
-29.1577
-20.9481
-25.3811
47.2604
35.9801
33.5055
-68.6904
-29.6903
-134.164
-42.2791
-46.0789
-20.4774
-20.4017
-20.7791
-20.8198
-21.9137
-20.5241
-29.8408
-20.9377
49.9589
48.1237
37.1042
35.8242
-75.8289
-28.8927
-141.176
-41.4786
-20.9043
-20.4061
-20.3285
-20.7261
-20.7941
-21.9418
-20.6187
-30.2664
49.8844
50.5104
49.0287
38.0326
37.7668
-82.8328
-28.1536
-146.46
-20.9524
-20.8463
-20.3313
-20.2606
-20.6761
-20.7749
-21.9636
-20.6875
47.471
50.4764
51.1227
49.7591
38.927
39.5748
-90.6224
-28.0457
-21.6906
-20.9071
-20.7903
-20.2623
-20.2006
-20.631
-20.7592
-21.9781
34.5049
48.1969
51.0667
51.6781
50.3476
39.8894
41.3623
-97.2258
-20.0364
-21.7617
-20.8658
-20.7356
-20.2015
-20.1488
-20.5959
-20.7477
27.0176
35.5492
49.0556
51.6041
52.1636
50.8368
40.9054
42.6133
-25.3291
-20.1212
-21.8408
-20.8312
-20.6836
-20.1489
-20.1103
-20.5788
-43.7
29.9405
36.6488
49.7599
52.0775
52.5914
51.216
41.5749
-20.9957
-26.1648
-20.1841
-21.8974
-20.8055
-20.6365
-20.1097
-20.0925
-29.8534
-51.3062
32.8535
37.5401
50.3291
52.496
52.947
51.4341
-24.8869
-20.7889
-27.0015
-20.2515
-21.9377
-20.7863
-20.5995
-20.0916
-94.0942
-30.3248
-59.6565
34.9494
38.3903
50.7936
52.843
53.1483
-25.3642
-25.0675
-20.7904
-27.7871
-20.3321
-21.9685
-20.7707
-20.5815
-49.0277
-103.797
-29.8949
-67.3206
36.6974
39.3254
51.1612
53.0393
-27.5205
-25.3888
-25.1952
-20.8174
-28.5137
-20.4216
-21.9927
-20.7591
-45.7817
-48.5017
-112.852
-29.1988
-74.2484
38.3679
40.2819
51.372
-27.2572
-27.5458
-25.4044
-25.2542
-20.8525
-29.2166
-20.5112
-22.0085
-41.6607
-45.6411
-47.3038
-121
-28.3859
-81.0752
39.9876
40.8823
-30.5867
-34.3102
-27.2646
-27.5753
-25.4052
-25.2754
-20.8963
-29.8864
-20.5735
-38.3509
-41.8295
-45.6346
-46.0412
-128.2
-27.4522
-88.5971
41.2288
-28.2284
-30.5196
-34.3407
-27.2333
-27.5808
-25.4052
-25.2719
-20.9235
-30.2995
-33.9219
-38.474
-41.9247
-45.7045
-44.7708
-134.985
-26.6197
-94.9852
-34.68
-31.0219
-27.9102
-30.5905
-34.271
-27.1848
-27.5669
-25.4074
-25.2642
-20.9127
-33.82
-38.556
-41.9989
-45.7958
-43.4952
-142.101
-26.4833
-35.0381
-35.8586
-31.8098
-30.8223
-27.7922
-30.546
-34.189
-27.1581
-27.5435
-25.4143
-25.2712
-35.297
-34.1267
-33.9385
-38.6218
-42.0544
-45.8723
-42.31
-147.468
-35.2161
-35.906
-31.7636
-30.5502
-27.6916
-30.4144
-34.0801
-27.1513
-27.5202
-25.4232
-35.3818
-34.2025
-34.0652
-38.6558
-42.0888
-45.877
-41.552
-35.3626
-35.7985
-31.7294
-30.3093
-27.617
-30.2264
-33.9624
-27.1555
-27.5105
-35.4996
-34.2105
-34.1615
-38.6677
-42.0998
-45.8081
-35.5191
-35.6819
-31.701
-30.0959
-27.5682
-30.0183
-33.871
-27.1613
-35.5899
-34.218
-34.218
-38.6587
-42.0858
-35.6923
-35.5928
-31.6733
-29.8982
-27.5176
-33.8361
-35.6545
-34.2251
-34.2251
-38.6362
-35.854
-35.5343
-31.6442
-29.7277
-27.4519
-35.7018
-34.2361
-34.1961
-35.4973
-31.6105
-29.6168
-35.7388
-34.2517
-35.4786
-31.5873
-35.7638
-34.2684
-3.24514
-3.62978
-3.68177
-4.1954
-4.17316
-4.7423
-3.1746
-3.64115
-2.71812
-3.96086
-4.02777
-4.58079
-4.66993
-5.3334
-5.33493
-6.00213
-8.06279
-8.83013
-8.8918
-9.8071
-9.62898
-5.98229
-6.65936
-4.71083
-5.32967
-3.55932
-4.09165
-2.60551
-3.01672
-2.1342
-10.5593
-10.1932
-4.15193
-4.33873
-4.93468
-5.04201
-5.65419
-5.87011
-6.63397
-6.65994
-7.42495
-7.36647
-8.07738
-8.8267
-9.61127
-9.60109
-10.441
-10.6219
-11.6238
-11.5179
-6.60355
-7.31903
-7.28645
-8.07628
-8.00806
-8.79678
-9.28434
-5.21481
-5.84579
-3.91246
-4.47438
-2.8349
-3.2659
-1.94124
-2.27224
-1.46052
-8.66651
-9.06784
-12.4869
-13.4074
-10.1283
-10.9174
-11.8828
-4.2359
-4.46999
-5.09278
-5.33371
-6.03195
-6.14156
-6.88384
-7.18159
-8.00959
-8.09254
-8.88799
-9.65959
-10.5005
-10.4567
-11.2956
-11.2503
-12.2175
-12.3844
-13.0861
-13.4104
-14.5088
-14.0184
-14.8915
-5.6873
-6.47163
-6.57907
-7.25711
-7.45026
-4.26811
-4.88906
-3.0112
-3.50606
-2.015
-2.36142
-0.702781
-1.18456
-1.44884
-7.11976
-7.89163
-7.63983
-8.79019
-10.1567
-14.4677
-12.5274
-13.918
-11.3881
-12.5553
-4.14832
-4.4968
-5.16133
-5.45534
-6.17904
-6.47812
-7.20842
-7.41124
-8.2234
-8.49649
-9.1784
-9.66139
-11.204
-10.8264
-12.2281
-12.2428
-13.31
-13.2355
-13.8718
-14.6579
-15.1213
-15.1812
-16.0952
-15.8088
-15.6503
-16.2119
-16.3388
-17.5349
-4.90425
-5.72688
-5.32937
-6.0435
0.142321
-0.339938
-3.35031
-4.08301
-2.02802
-2.50803
-0.515815
-1.08541
-1.35596
1.03108
0.585458
-5.66675
-6.45753
-6.31124
-18.6723
-17.6039
-19.3068
-7.66403
-8.9723
-10.2668
-11.4445
-13.7278
-14.8603
-16.5312
-15.8709
-12.6978
-13.7837
-3.91227
-4.33692
-5.05581
-5.45696
-6.21554
-6.55367
-7.31438
-7.63689
-8.73383
-8.40617
-9.61484
-9.81141
-10.7125
-11.272
-12.8865
-12.3659
-13.831
-13.9479
-14.6316
-15.2083
-15.0767
-20.6333
-21.0433
-19.789
-16.1815
-15.9515
-16.9397
-16.8995
-17.2553
-18.0615
-17.6494
-19.7809
-19.0372
-29.4172
-30.1363
-29.7962
-32.4015
-31.23
-30.7651
-30.9949
-30.6785
-3.67655
-4.26107
-3.71766
-4.40392
0.510732
-0.0596648
-2.1163
-2.6911
-0.253433
-0.940898
-1.26674
1.9235
1.54968
1.57433
1.064
-3.94601
-4.8318
-7.66696
-4.49069
-6.01424
-29.1125
-27.5408
-23.5049
-22.7473
-21.3689
-16.9848
-18.3777
-19.146
-20.597
-7.8854
-8.98661
-8.83942
-10.3709
-11.7033
-13.0068
-14.3085
-15.1302
-16.5028
-29.8188
-30.7808
-32.3318
-30.6936
-32.1285
-33.7898
-32.6389
-31.7943
-33.057
-32.8789
-3.38847
-4.00656
-4.81709
-5.31527
-6.13869
-6.5666
-7.48042
-7.76966
-8.56981
-8.84785
-10.2389
-9.76953
-11.092
-11.2496
-12.2631
-12.8363
-12.8749
-14.2131
-13.8037
-14.9754
-15.6829
-15.631
-16.6542
-16.7342
-16.37
-21.9892
-22.9075
-25.0267
-24.1638
-21.6479
-20.7345
-17.6765
-17.7563
-18.3615
-18.6286
-20.6005
-19.4098
-19.0862
-25.618
-27.6003
-27.1665
-27.7152
-27.0944
-29.1816
-29.4245
-30.0073
-32.0802
-31.1052
-31.5447
-31.2633
-31.6514
-31.7623
-32.3039
-31.994
-31.5388
-31.66
-2.04624
-2.5555
-1.84111
-2.5404
1.01002
0.317703
0.147307
-0.661513
-0.967081
2.76471
2.45258
2.58173
2.15471
2.24405
1.69508
-1.70257
-2.32852
-3.64548
-3.97609
-5.50843
-6.40389
-2.94097
-24.7501
-27.1935
-26.1126
-29.9355
-28.611
-24.0377
-25.2231
-23.4105
-21.4475
-6.46771
-21.1916
-17.41
-19.7803
-18.742
-7.5475
-8.5243
-10.0698
-10.5597
-12.1245
-12.5728
-14.357
-15.3478
-17.1004
-30.0292
-30.8994
-29.8934
-32.8763
-32.5952
-34.1701
-32.3525
-32.2081
-31.4057
-31.942
-33.1753
-32.8699
-2.72576
-3.36988
-2.13788
-2.19543
-4.32752
-5.03576
-6.0049
-6.48483
-7.49545
-8.02852
-9.11376
-9.2319
-10.5247
-11.3715
-10.2518
-12.0103
-12.6114
-13.563
-14.0839
-14.8983
-13.5535
-14.0913
-15.5845
-15.6222
-15.6474
-16.4631
-16.3385
-16.4363
-16.4215
-17.1679
-17.2783
-17.9828
-18.3474
-22.5812
-23.568
-24.6447
-24.0204
-22.2571
-21.5687
-19.312
-19.617
-21.3984
-20.4242
-20.3359
-25.4583
-25.1059
-25.5129
-28.2883
-27.1454
-29.0008
-28.7758
-30.4636
-27.5595
-30.0243
-30.2918
-31.7317
-31.3442
-30.9965
-32.2425
-30.3118
-31.4075
-0.444468
-0.248712
-0.652688
0.0285133
1.68527
0.92722
0.735926
0.289719
3.58235
3.34694
3.60368
3.24961
3.45461
2.96524
3.07649
2.41762
4.30772
4.16578
4.89184
4.91468
5.47962
5.33383
1.08749
-0.512221
-1.29629
-1.33784
-5.1876
-3.44423
-1.57059
-0.791685
-28.6178
-28.1945
-26.5836
-22.4403
-25.6982
-24.2353
-4.90145
-6.65086
-8.42394
-22.7342
-18.5884
-21.1639
-19.9413
-10.176
-11.2336
-12.7494
-13.2516
-14.8718
-15.4194
-17.421
-28.9554
-32.6814
-33.3086
-32.1843
-31.2115
-34.2022
-35.2117
-34.3787
-35.1922
-33.0222
-33.0058
-33.5831
-34.3224
-33.9372
-1.31275
-1.82424
-4.3154
-4.3697
-3.12922
-3.72923
-5.68916
-6.24635
-8.04771
-8.09342
-9.19065
-9.66581
-11.2702
-11.2221
-12.1076
-12.6955
-13.6613
-13.9833
-14.9074
-14.7497
-15.5001
-16.1025
-17.0246
-16.6797
-17.3038
-16.9663
-17.679
-17.7143
-17.9426
-17.873
-18.6599
-19.0002
-19.6476
-20.0241
-24.1688
-22.9141
-23.7961
-23.2242
-22.2194
-20.6228
-21.6084
-21.0421
-21.4539
-26.3346
-24.8986
-27.4013
-25.8806
-27.8956
-28.1146
-27.4116
-31.0251
-28.8598
-32.9074
-31.0278
5.53863
5.80875
0.938909
1.14348
2.44
1.69002
1.82246
2.12674
2.42315
4.50837
4.21132
4.51563
4.12579
4.39817
3.88205
4.12933
3.45859
5.35353
5.21125
6.02195
6.03295
6.63202
6.44331
2.9634
2.53655
2.46806
0.684325
-3.09588
-1.52738
0.148092
1.39584
-24.7219
-26.7388
-27.9297
-3.1744
-5.2061
-7.07081
-9.12246
-10.984
-22.591
-24.422
-18.8671
-21.6965
-13.0081
-14.2181
-16.3996
-16.8136
-19.052
-28.812
-31.0341
-30.5991
-33.7358
-31.2427
-32.8295
-34.6325
-34.6335
-35.3516
-33.409
-34.4574
-34.6935
-35.1006
-33.9223
-1.11831
-3.10704
-2.28259
-1.92857
-2.37059
-4.07293
-4.97174
-5.35335
-4.07541
-5.21387
-7.91374
-8.15602
-9.57275
-9.04674
-11.9352
-12.1798
-14.3218
-13.2923
-13.2717
-14.0632
-14.2788
-15.3028
-15.6116
-16.3176
-16.7345
-17.7492
-18.3062
-18.2088
-17.9838
-18.5693
-18.685
-18.2514
-19.52
-19.4316
-19.4525
-19.914
-21.3377
-24.7065
-24.2758
-23.2629
-22.0765
-21.501
-22.9159
-22.5885
-22.0517
-25.5387
-25.4109
-27.3637
-26.4993
-27.6453
-27.7669
-27.8838
-27.582
5.546
5.92715
6.58898
6.93021
3.64193
3.01927
3.33213
4.38203
4.28385
5.67179
5.39433
5.84881
5.26855
5.54026
4.88506
4.99274
6.48958
6.59661
7.33996
7.29565
8.0168
7.68691
6.15553
4.91597
4.23757
3.41197
4.6552
7.65304
-1.37953
0.282121
2.42141
4.09827
-1.22587
-28.5552
-26.4162
-2.96865
-5.25858
-7.44244
-9.76901
-12.8417
-14.9458
-14.4497
-21.3288
-25.9659
-23.618
-17.8029
-18.3742
-20.9806
-31.98
-29.9537
-35.0316
-33.5777
-35.633
-35.6658
-36.1398
-35.2604
-35.3748
-34.0484
-2.96214
-2.40508
-2.71717
-3.80258
-3.92587
-3.3021
-4.0426
-5.79554
-6.84156
-8.02704
-6.40382
-8.1058
-8.09371
-8.95378
-12.9767
-12.216
-13.7255
-13.8917
-16.7799
-15.0193
-14.8973
-14.1741
-16.1546
-17.6017
-17.1327
-18.3568
-18.5461
-18.3322
-19.1658
-18.3606
-19.501
-20.0019
-20.0559
-18.8725
-20.6494
-20.0527
-20.5536
-21.7281
-22.7597
-25.7709
-25.0405
-21.8368
-21.9587
-22.8669
-22.4154
-25.9949
-25.8126
-27.0512
-26.2272
-27.5474
-26.9708
-3.52495
-3.58835
5.33697
5.84535
6.47936
6.94264
7.66377
8.21514
5.93669
5.79173
6.73563
7.81328
8.42269
7.10371
6.82591
7.31708
6.60148
6.98206
8.08852
8.08843
8.91675
8.82793
9.67016
9.11294
9.63669
7.68108
6.26806
6.63224
10.3765
9.55557
1.01729
2.95492
5.67314
7.28187
1.34223
-0.672506
-2.80597
-32.4293
-28.7013
-5.76899
-8.8097
-12.1703
-14.4246
-18.3602
-19.7893
-23.5396
-27.341
-30.386
-25.0975
-37.6115
-35.1154
-38.4311
-38.7236
-39.1209
-37.9509
-38.9958
-38.15
-4.27638
-4.0102
-5.15731
-5.22588
-6.07588
-5.42199
-6.28727
-7.71734
-8.60472
-9.70899
-8.44331
-9.7028
-13.7132
-11.0132
-12.1946
-13.1298
-14.118
-14.0927
-15.2802
-17.5616
-16.0607
-17.4376
-15.8988
-18.7115
-18.0484
-20.3104
-18.7501
-19.6382
-18.9491
-19.1242
-19.0119
-20.0046
-20.3961
-20.349
-20.5155
-20.1572
-21.3194
-21.1485
-21.8483
-22.1377
-23.3831
-22.3042
-24.3936
-23.4759
-23.6318
-25.2082
-24.9416
-25.5715
-25.05
-3.97006
-4.1437
-4.96341
-4.97802
4.89106
5.49142
6.07471
6.64271
7.29594
7.96293
9.50862
8.81021
4.26662
4.88398
10.5917
10.2081
8.3716
8.90337
8.89794
8.56619
9.14967
10.0817
9.894
10.8808
10.6275
11.2732
10.4374
12.0953
12.5905
13.4408
12.5768
9.34939
10.382
6.27949
4.27494
10.6629
9.09132
5.24587
2.71483
-1.24712
3.59525
-4.17345
-6.8905
-37.5708
-33.8662
-11.2017
-15.7019
-22.5582
-24.4009
-33.553
-38.4795
-32.8059
-39.9267
-40.0482
-41.5762
-41.021
-42.299
-40.9857
-5.83031
-6.27351
-6.94002
-7.10004
-8.14656
-7.57066
-9.01224
-9.86125
-10.8735
-11.9157
-10.8855
-11.921
-14.8386
-13.8811
-13.1846
-14.1659
-17.768
-14.9692
-15.3115
-16.9446
-16.4432
-18.2049
-17.512
-17.8081
-17.834
-19.3101
-18.808
-19.9192
-20.1045
-19.7024
-19.7767
-19.4917
-19.4559
-20.4413
-20.6102
-20.6777
-21.0141
-20.4432
-20.6853
-20.2822
-21.8148
-21.3274
-23.5979
-22.4417
-24.7819
-23.5265
-21.8614
-25.0629
-24.5623
-4.2569
-4.48791
-5.19066
-5.41242
-6.18009
-6.39035
5.38571
6.07015
6.62478
7.36394
10.8192
9.0112
9.97632
8.13391
3.53245
4.12769
4.52501
5.22391
2.72009
3.31082
1.85998
2.4301
12.5958
11.2463
10.8661
11.8509
11.1171
11.9151
12.3872
12.0622
13.2512
12.4732
12.7795
12.0868
11.9021
14.0725
15.0207
15.2625
16.5421
15.9669
13.7411
13.0866
10.0371
8.11649
14.4176
13.0868
8.90794
6.5127
-0.349384
-5.24193
6.45023
2.57583
-8.62525
-14.0316
-45.3824
-42.8009
-23.2491
-31.728
-40.8429
-46.2265
-39.7542
-46.39
-44.3262
-46.4215
-46.0737
-7.35092
-8.14338
-10.2961
-10.3693
-9.39562
-9.40685
-11.1457
-12.1633
-13.0782
-13.9282
-13.4555
-14.1663
-16.0159
-15.0039
-14.7012
-15.2918
-18.0248
-17.8705
-16.9288
-18.3724
-16.9263
-17.4169
-18.6633
-18.967
-18.2198
-19.45
-19.4334
-20.6731
-20.2633
-20.2609
-20.1877
-20.1314
-20.7562
-20.7182
-20.5464
-20.7295
-20.6227
-20.4003
-21.1862
-20.5725
-21.2648
-23.6305
-21.4524
-21.7749
-25.1509
-21.6838
-7.7604
-4.21426
-4.51008
-5.23211
-5.57715
-6.32692
-6.63647
-7.32748
-4.18874
-4.47577
-3.99111
-4.35323
-3.66291
-4.0668
0.999043
1.49216
0.142144
0.564442
-0.693761
-0.320204
-1.44544
-1.16746
-3.25896
-3.70225
-2.72559
-3.19189
-2.12843
-1.92273
-2.60475
5.69235
6.5465
7.1784
8.15368
10.0917
11.0193
8.97826
3.60307
4.29657
4.67344
5.43409
2.59103
3.24976
1.52313
2.12772
10.8858
13.5838
14.997
13.7227
14.2229
13.8424
15.3951
14.7662
15.8235
14.9618
13.1415
13.344
11.8685
16.4353
16.7985
17.1456
18.4878
18.3606
20.0836
20.083
17.7273
17.2759
14.3937
12.3284
18.9191
17.5814
12.6336
9.78307
-10.5701
-1.36849
-9.02152
8.35067
2.85148
-20.5384
-24.8479
-47.8458
-50.2377
-35.6414
-65.9554
-55.8801
-54.2268
-46.8715
-8.80616
-9.57456
-11.7077
-11.8961
-12.0014
-10.7196
-11.4631
-13.5257
-13.9988
-15.1054
-15.3907
-15.0089
-15.9801
-15.6783
-16.3754
-17.1842
-16.2446
-19.4187
-18.8705
-17.725
-18.0819
-18.8895
-18.5392
-19.5031
-19.4505
-20.3918
-20.4007
-20.567
-20.4645
-20.9422
-20.9286
-20.8457
-21.155
-20.882
-20.966
-20.9344
-20.6339
-21.0491
-20.6353
-20.4813
-24.7729
-20.7005
-9.1089
-7.58532
-8.39456
-5.12832
-5.53788
-6.25204
-6.64439
-7.31491
-4.90248
-5.30013
-4.61848
-5.06389
-4.20724
-4.68189
0.48994
1.00558
-0.481991
-0.0621228
-1.43884
-1.06266
-2.2363
-2.0147
-3.65962
-4.17249
-3.00655
-2.78957
-3.55146
5.86936
6.8949
7.45302
8.72922
9.54668
3.47634
4.25546
4.52056
5.42495
2.19403
2.91412
0.879908
1.54867
8.9373
11.2177
9.77471
17.2368
16.9894
16.442
18.2481
17.4576
18.0411
15.9722
14.3286
14.0964
12.2716
20.2375
18.9329
19.0959
21.9438
21.8788
23.9586
24.0604
22.1725
22.3206
19.1251
17.0893
24.1472
22.639
17.4228
13.8311
-13.2543
-21.827
-2.31622
-12.1787
11.0404
3.29098
-29.032
-30.7964
-40.6534
-88.0014
-80.2997
-10.0514
-10.6907
-11.6278
-12.7171
-13.4416
-13.2092
-13.2466
-12.6682
-16.0344
-16.6189
-17.2011
-17.2166
-16.4494
-17.7417
-17.0531
-17.8944
-18.2164
-18.5565
-18.2489
-18.0669
-19.7448
-19.4136
-18.8825
-19.0864
-19.7506
-19.4554
-20.1519
-20.4293
-20.6367
-20.6582
-21.1633
-20.998
-21.0315
-21.1514
-21.3846
-21.3436
-21.3909
-21.318
-19.9946
-21.5773
-20.8145
-30.1279
-9.0463
-9.89742
-7.73387
-8.62819
-5.97542
-6.44474
-7.29658
-5.77308
-6.28786
-5.31411
-5.89553
-4.68257
-5.26904
-0.257339
0.223149
-1.33351
-0.91455
-2.38943
-2.01884
-3.21988
-3.0368
-4.02563
-3.85252
-4.6123
5.77062
7.01171
7.64112
7.1892
3.00266
3.87726
4.05497
5.09781
1.49487
2.27836
0.00924921
0.793809
9.28657
7.83983
11.601
10.0792
17.4589
17.4229
21.0636
20.3161
19.6538
18.7277
21.3905
21.0709
12.4148
16.8164
15.2381
14.1299
23.3722
23.2518
25.8029
25.5243
27.046
27.9107
26.5131
28.0012
24.0219
22.3172
28.7492
27.5201
23.6444
19.713
21.4932
-18.965
-28.7843
13.9327
-6.14019
-17.8467
-32.5725
-28.7024
-13.8466
-10.2177
-11.0398
-11.7335
-12.7205
-13.5998
-15.9007
-14.4733
-15.3576
-17.6899
-17.2415
-18.7443
-18.8104
-17.2582
-18.573
-19.0887
-19.2024
-19.3572
-18.9376
-19.2444
-19.4967
-19.3922
-19.3497
-20.2188
-20.02
-19.7583
-19.8365
-20.1559
-21.0415
-20.5716
-20.7584
-21.0867
-21.1023
-21.2512
-21.2449
-21.0494
-21.1656
-21.8461
-21.1457
-9.0997
-9.81852
-7.19987
-7.74147
-8.63992
-6.6
-7.23969
-5.91547
-6.57314
-5.18294
-5.85528
-1.2042
-0.725877
-2.43397
-1.98716
-3.54358
-3.24015
-4.37026
-4.22864
-5.05772
7.10397
5.32714
6.21041
5.82622
2.31132
3.19645
4.16696
3.38142
0.71178
1.52824
-0.999618
-0.21486
9.0666
7.08265
5.74474
11.3898
9.63867
17.9136
20.6872
19.591
20.4568
24.9454
23.59
24.7844
22.6693
22.945
14.9539
12.4498
17.6612
16.3085
19.2539
27.6074
27.1388
30.8489
33.301
30.3946
31.1647
31.7616
32.4593
33.4303
28.747
29.7141
29.8606
25.4772
27.0672
25.7081
21.2505
-21.7827
-39.9736
-36.0727
-15.8438
-10.2824
-14.3938
-14.8894
-11.308
-11.5962
-12.4473
-12.9849
-13.6764
-14.3172
-16.1851
-15.962
-17.5483
-17.2556
-19.7549
-19.7986
-18.7268
-18.9659
-20.1939
-20.0083
-19.3663
-19.3417
-20.0048
-20.0885
-20.1299
-20.6582
-20.5181
-20.3385
-20.5563
-20.92
-20.7971
-21.0954
-21.0312
-20.9958
-20.972
-21.0147
-21.0535
-10.2833
-8.01026
-8.60268
-9.3635
-9.66737
-7.30785
-8.02643
-6.50805
-7.21214
-5.65092