/*--------------------------------*- C++ -*----------------------------------*\
  =========                 |
  \\      /  F ield         | OpenFOAM: The Open Source CFD Toolbox
   \\    /   O peration     | Website:  https://openfoam.org
    \\  /    A nd           | Version:  8
     \\/     M anipulation  |
\*---------------------------------------------------------------------------*/
FoamFile
{
    version     2.0;
    format      ascii;
    class       volScalarField;
    location    "5000";
    object      nut;
}
// * * * * * * * * * * * * * * * * * * * * * * * * * * * * * * * * * * * * * //

dimensions      [0 2 -1 0 0 0 0];

internalField   nonuniform List<scalar> 
4109
(
0.000666426
0.000661342
0.000658656
0.000666449
0.000669047
0.000677613
0.000672488
0.000677322
0.000674981
0.000656893
0.000666939
0.000678481
0.000668143
0.000671038
0.000676852
0.000677668
0.000666063
0.000673687
0.000679237
0.000675709
0.00066067
0.000678521
0.000673859
0.000678056
0.000673712
0.000668217
0.000656396
0.000672653
0.000677598
0.000681368
0.000677363
0.000676876
0.000668043
0.000671253
0.000677457
0.000682471
0.000673898
0.000667041
0.000667033
0.000669687
0.000667314
0.000662738
0.00067391
0.000681489
0.00067813
0.00148532
0.000825088
0.000677817
0.000677446
0.000663309
0.000673126
0.000677461
0.00067697
0.00067274
0.000675879
0.000660745
0.000660751
0.000678143
0.000676465
0.000669904
0.000675288
0.00196308
0.000684654
0.000680089
0.000679315
0.000728798
0.00123454
0.000678695
0.00067359
0.00066049
0.000671605
0.000678938
0.000689437
0.000677357
0.000679782
0.00067348
0.000670766
0.000667174
0.000647969
0.000674901
0.000679432
0.000679821
0.000675744
0.000668631
0.000728594
0.000738916
0.00152758
0.00193066
0.00194712
0.000684497
0.000685496
0.000680571
0.000680242
0.000680476
0.000705335
0.000942042
0.000676895
0.000662635
0.00069215
0.000686003
0.000682332
0.000686538
0.000692451
0.000684845
0.000673052
0.000676247
0.0006746
0.000666423
0.000657375
0.000678736
0.000653
0.000680749
0.000680676
0.000677018
0.000670677
0.00209758
0.000826717
0.000989656
0.00126779
0.00197026
0.00201091
0.000670745
0.000687795
0.000689214
0.000682884
0.000682037
0.000681565
0.000677128
0.000938006
0.000656917
0.000664558
0.000692982
0.000689521
0.000694141
0.000692902
0.000681225
0.000689443
0.000676557
0.000673601
0.000671569
0.000659929
0.000677668
0.000682014
0.000681523
0.000682121
0.000678234
0.000671147
0.00175773
0.00102466
0.00194669
0.00131253
0.00201097
0.000803251
0.000690524
0.000688853
0.000683249
0.000682937
0.000682981
0.000680575
0.000666382
0.000818203
0.000662207
0.000694228
0.000690487
0.000696296
0.000694303
0.000695497
0.000696317
0.000680837
0.000679216
0.000677015
0.000671221
0.000655532
0.000679948
0.000674313
0.000683527
0.000683204
0.000678955
0.000673488
0.00118938
0.00227756
0.00121428
0.001941
0.00199546
0.00075205
0.000685814
0.000686142
0.000684841
0.000682804
0.000684483
0.000669491
0.000860181
0.000668454
0.000688896
0.000689207
0.000697155
0.000692024
0.000697555
0.000700321
0.000691743
0.000685022
0.000679233
0.000676853
0.000673304
0.000662592
0.000682575
0.00067614
0.000684293
0.000684253
0.000681523
0.000673602
0.0011643
0.00214459
0.00198138
0.00117187
0.00202836
0.000746619
0.000685986
0.00068805
0.000685587
0.00067176
0.000858137
0.000650404
0.000689096
0.000691109
0.000692438
0.000692301
0.000695298
0.000700714
0.000698417
0.000702046
0.00068664
0.000682456
0.000679891
0.000674946
0.000659731
0.000685247
0.000672293
0.00068558
0.000685896
0.000682372
0.000683522
0.000676451
0.00109753
0.00216542
0.00120721
0.00196815
0.00201419
0.000728825
0.000688602
0.00068876
0.000679126
0.000857581
0.000654014
0.000692172
0.00069161
0.000694056
0.000695803
0.000695597
0.000695854
0.000701318
0.00070361
0.000696693
0.000693042
0.000682283
0.00067842
0.000666244
0.000683498
0.000688415
0.000674569
0.000687145
0.000685069
0.000676338
0.000685539
0.00218445
0.00104707
0.00198894
0.00118669
0.00204008
0.000724861
0.000782843
0.000674754
0.000681232
0.000851143
0.000657705
0.000692815
0.00068973
0.000694589
0.000698663
0.00069919
0.00069712
0.000698764
0.000704659
0.000703081
0.000707616
0.000698337
0.000692275
0.000662487
0.000680367
0.000675033
0.000684967
0.000685328
0.000692597
0.000673945
0.000690215
0.00067952
0.000687188
0.00101645
0.00217058
0.00196069
0.00114792
0.00201511
0.000713159
0.000754227
0.000791965
0.000796536
0.000776138
0.000781047
0.000789428
0.000933953
0.000658725
0.000630794
0.000676575
0.000661311
0.000688117
0.00069437
0.000701233
0.000696719
0.000699048
0.000710218
0.000699522
0.000705478
0.000710252
0.000707384
0.000699009
0.000706458
0.000701032
0.000673304
0.000677395
0.000686285
0.000688453
0.000679285
0.000694709
0.000677218
0.000691019
0.000689165
0.000985505
0.00223406
0.00196202
0.000704525
0.000781649
0.000845627
0.000776562
0.000788894
0.000787184
0.000805403
0.000707786
0.000723057
0.000731182
0.000762507
0.000766352
0.000739405
0.000774973
0.000783626
0.00147067
0.000615522
0.000601808
0.000642287
0.00069482
0.000712885
0.000697959
0.000699966
0.000702226
0.000700739
0.000709239
0.000702444
0.000709218
0.000715881
0.00071441
0.000708488
0.000719718
0.000730565
0.000729091
0.000666378
0.000682994
0.000689838
0.000688671
0.000682666
0.000690363
0.000696155
0.00067425
0.000694434
0.000954693
0.00236971
0.000812917
0.000817778
0.000783554
0.000782797
0.000801207
0.000722358
0.000710015
0.000739573
0.00072885
0.00073474
0.000743961
0.000750938
0.00078008
0.000773021
0.000771031
0.00251386
0.00108289
0.000550199
0.000617125
0.00068517
0.000713753
0.000713381
0.000700474
0.00070414
0.00070036
0.000702779
0.00070872
0.00070347
0.000718359
0.000718383
0.000723985
0.000723503
0.000728303
0.000726314
0.000678458
0.00068522
0.000693821
0.000693996
0.000691273
0.000682441
0.00069246
0.000696406
0.000699831
0.000700013
0.000676456
0.000981859
0.000792404
0.000845205
0.000813598
0.000783767
0.000789003
0.000800714
0.000729181
0.000719264
0.000725845
0.00073684
0.000740067
0.000740451
0.000729982
0.000732529
0.000734725
0.000755152
0.000775065
0.000770398
0.000767089
0.00240623
0.00188741
0.000629239
0.000630123
0.000682739
0.000713236
0.00071153
0.000699832
0.000703761
0.000705579
0.000704536
0.000706444
0.000716621
0.000717352
0.00072241
0.000722517
0.000722847
0.000726498
0.000672548
0.000695166
0.000691413
0.0006966
0.000697503
0.000685974
0.000685735
0.000693737
0.000697295
0.000689702
0.00150564
0.00177881
0.000703748
0.000651934
0.000816201
0.0008158
0.000834058
0.000843411
0.000818474
0.000779392
0.000787528
0.000804596
0.000732342
0.000729804
0.000734656
0.00074018
0.000749291
0.000738791
0.000754095
0.000735516
0.000741201
0.000764273
0.000759209
0.000770821
0.000774489
0.00278694
0.00217915
0.00237035
0.000591847
0.000604177
0.000676085
0.000707724
0.000710786
0.000703361
0.000708562
0.00070566
0.000706809
0.000712341
0.000715506
0.000717361
0.000720665
0.000723511
0.000728441
0.000729593
0.000686519
0.000689663
0.000704266
0.000697061
0.000696095
0.000696621
0.000699745
0.000705148
0.000689768
0.000692915
0.000650522
0.000609094
0.000833277
0.000811154
0.000822821
0.000772177
0.000753121
0.000853262
0.000810039
0.000783689
0.000786126
0.000799478
0.000735317
0.000733734
0.000732548
0.000762816
0.000744741
0.000749484
0.000739535
0.000741817
0.000760119
0.000755396
0.000767055
0.000773012
0.000721593
0.00284954
0.00248761
0.00250281
0.000636752
0.000600546
0.000674856
0.000708724
0.000711171
0.000707907
0.000700719
0.000709741
0.000713253
0.000715882
0.000718168
0.000720999
0.000724378
0.000726662
0.000730682
0.000732654
0.000677461
0.000699524
0.000701349
0.00070218
0.000701214
0.000703284
0.000702607
0.000701552
0.000690969
0.000698248
0.000698528
0.000682176
0.000833755
0.000762114
0.000775929
0.000825512
0.000768338
0.000858778
0.000806156
0.000785537
0.000791953
0.000800142
0.000808147
0.000738785
0.000736162
0.000736588
0.000732746
0.000742885
0.000752132
0.000748784
0.000759373
0.000764204
0.00077204
0.000772974
0.000699682
0.00290543
0.00258013
0.00264795
0.000611357
0.000589835
0.000668159
0.000714169
0.000709995
0.000712504
0.000707571
0.000714458
0.000718745
0.000723482
0.000719201
0.000724661
0.000729711
0.000729241
0.000734194
0.00073718
0.000690588
0.0006943
0.000709379
0.000707812
0.000704253
0.000705806
0.000709926
0.000693736
0.000695716
0.000699229
0.000654974
0.00082534
0.000807001
0.000754352
0.000745641
0.000768303
0.000808853
0.000760515
0.000818821
0.00084857
0.000783231
0.000794061
0.00079613
0.000809212
0.000741998
0.000737883
0.0007391
0.000738973
0.000738732
0.00074731
0.000747499
0.000745284
0.000756144
0.000765072
0.000775426
0.00077977
0.00079694
0.00293715
0.00277194
0.00267193
0.000641092
0.000582072
0.000682456
0.000715729
0.000712703
0.000705201
0.000715773
0.000719129
0.000722531
0.000720531
0.00072668
0.000731712
0.000734372
0.000735654
0.00073837
0.000685475
0.000706242
0.000708059
0.000694949
0.000708173
0.000706523
0.000708097
0.000704474
0.000699432
0.000700348
0.000649971
0.000845329
0.000821365
0.000823159
0.000792267
0.000736472
0.000737744
0.000751785
0.000773107
0.000801711
0.000773511
0.000735647
0.000829516
0.000837311
0.000849638
0.000782745
0.000796472
0.00079801
0.000798372
0.000743636
0.000740384
0.000737116
0.000738381
0.000747728
0.000753438
0.000746811
0.000783374
0.000761238
0.000761566
0.000773242
0.000720994
0.00298123
0.00287788
0.00282548
0.00068277
0.000615648
0.000595023
0.000721162
0.000712218
0.00072264
0.000718703
0.000725862
0.000726007
0.000723091
0.000732464
0.000734351
0.000735739
0.000700274
0.000704206
0.00071307
0.000697669
0.000700478
0.000712302
0.000707509
0.000709267
0.000715088
0.000700187
0.00064529
0.000694302
0.000705104
0.00082477
0.000810524
0.000811036
0.00078288
0.000733993
0.00075163
0.000771076
0.000765716
0.000792585
0.000723135
0.00072049
0.000719677
0.000711726
0.000703351
0.000833502
0.000814181
0.000830033
0.000815876
0.000786427
0.000785195
0.000787096
0.000784132
0.0007456
0.000741333
0.000743368
0.000755038
0.00075122
0.000749794
0.000743089
0.000772467
0.000772577
0.00076588
0.000769388
0.000862108
0.00308064
0.00301815
0.00266152
0.000601118
0.000591219
0.000716509
0.000668353
0.000733345
0.000721366
0.000731004
0.000734061
0.000737593
0.000699793
0.000716519
0.000699382
0.000702578
0.000708991
0.000713349
0.000710726
0.000712195
0.000647451
0.000700357
0.000704605
0.000705744
0.000704582
0.000810358
0.000803001
0.000801587
0.000773699
0.000731446
0.000758601
0.000788226
0.000758369
0.000739198
0.000722787
0.000722326
0.000714225
0.000711872
0.000701136
0.000712633
0.000819152
0.000851431
0.000813152
0.000820597
0.000772633
0.000775945
0.000779165
0.000764174
0.000744142
0.000743613
0.00075278
0.000747537
0.000753147
0.000748821
0.000747919
0.000773077
0.000774199
0.000764009
0.000600716
0.00301796
0.00303552
0.00271922
0.000582598
0.000578829
0.0007395
0.00103448
0.000729029
0.000734089
0.000737358
0.000726354
0.000701944
0.000705367
0.000719139
0.000713343
0.000717107
0.000710644
0.000668351
0.000709546
0.000715242
0.000722547
0.000798206
0.000800707
0.000795473
0.000791689
0.000765053
0.00076085
0.000779182
0.000751578
0.000743675
0.000753169
0.000736905
0.000726932
0.000734466
0.000729807
0.00072856
0.000729323
0.000780501
0.00080262
0.000785539
0.000810352
0.000764549
0.00076335
0.000772525
0.000767059
0.000786337
0.000744699
0.000759009
0.000754338
0.000753462
0.0007514
0.000747546
0.000761087
0.000763733
0.000762832
0.000652085
0.00316615
0.00311488
0.00308817
0.000521689
0.000730982
0.000624381
0.000737278
0.000739573
0.000704122
0.000706799
0.000713763
0.000716704
0.000718304
0.000715132
0.000681499
0.000709574
0.000731107
0.000706684
0.000796965
0.000794569
0.000788689
0.000778046
0.000756886
0.000774881
0.000746095
0.000767532
0.000764999
0.00075651
0.000736836
0.000740971
0.000751557
0.000743503
0.000747355
0.000811957
0.000786016
0.000803334
0.000757013
0.000755443
0.000762665
0.000778092
0.000778295
0.000754647
0.000751563
0.000747877
0.000756304
0.00075396
0.000752845
0.000541551
0.00315396
0.00451646
0.000983186
0.000747238
0.000624487
0.000742905
0.00071047
0.000723583
0.000717952
0.000724027
0.000714952
0.000687677
0.000709299
0.000711613
0.000785508
0.000782357
0.000777861
0.000770986
0.000751427
0.000740671
0.000736379
0.000731843
0.000728246
0.000711949
0.000714869
0.000724374
0.000717777
0.000721091
0.000778716
0.000794243
0.000788784
0.00075298
0.000759067
0.000774432
0.000752273
0.000774514
0.000752665
0.000748301
0.000751739
0.000750803
0.000752074
0.000756393
0.00543055
0.00515307
0.00141681
0.00076546
0.000573387
0.000718993
0.000721464
0.00071639
0.000720209
0.000692858
0.000715807
0.000728339
0.00078169
0.000783999
0.000769992
0.000762461
0.000745371
0.000741587
0.000736439
0.000733802
0.000716941
0.000721389
0.000729071
0.000722717
0.0007273
0.000768415
0.000776976
0.000780054
0.000761135
0.000763823
0.000753084
0.000769159
0.000747994
0.000747101
0.00074655
0.000749367
0.00112684
0.000979234
0.00628436
0.00682736
0.00239559
0.00122807
0.000722932
0.00072001
0.000727587
0.000725504
0.000632259
0.000724663
0.0007265
0.000766125
0.000767332
0.000764502
0.000760206
0.000752361
0.000751606
0.000743994
0.000733394
0.000730727
0.000744563
0.000738681
0.000737047
0.000768885
0.000764092
0.000769744
0.000759114
0.000750433
0.000753619
0.000760966
0.000871423
0.000966691
0.00155537
0.00832939
0.00824027
0.0013578
0.00103473
0.00190875
0.000724319
0.000722461
0.000726673
0.000734777
0.000564693
0.000728245
0.000724396
0.000769562
0.000767398
0.000759356
0.000754433
0.000749872
0.000746371
0.000731887
0.00073398
0.000742773
0.000739921
0.00073696
0.000766272
0.000765846
0.000757014
0.0007548
0.00075496
0.000758226
0.000575864
0.000754591
0.000793193
0.00245538
0.00119627
0.00083635
0.00188701
0.00179725
0.000728772
0.000725071
0.000749328
0.00053689
0.000730773
0.000726192
0.000755612
0.000757066
0.000754633
0.000749544
0.000747145
0.000729115
0.000736722
0.000742528
0.000741542
0.000736524
0.000765151
0.000762563
0.000749426
0.000763755
0.000750748
0.000752233
0.000473399
0.00048169
0.00062547
0.000612684
0.000561981
0.00184247
0.000996398
0.000638735
0.00161924
0.00166806
0.000729451
0.000736922
0.000767609
0.000732448
0.000731863
0.00073143
0.000756102
0.000749953
0.000748683
0.000743728
0.000737029
0.000732883
0.000743406
0.000739525
0.000737736
0.000760134
0.000748735
0.000759779
0.000747324
0.000747855
0.000374499
0.000387156
0.000487796
0.000432037
0.00163661
0.000406922
0.00191221
0.0015335
0.000776424
0.000447348
0.0013329
0.00152395
0.000725602
0.000745286
0.000731105
0.000733566
0.000735273
0.000750787
0.000749786
0.000749188
0.00074505
0.000737956
0.000737595
0.000743935
0.000740865
0.000739955
0.000755116
0.000745846
0.000742825
0.00138431
0.00028792
0.000294416
0.000346606
0.000258393
0.00141415
0.000280585
0.00197262
0.0015988
0.00122113
0.000550733
0.000267541
0.00103028
0.00136446
0.000739021
0.000729019
0.000735003
0.000731136
0.000740001
0.000742353
0.000745426
0.000743551
0.000736325
0.00073703
0.000743288
0.00074025
0.00074038
0.00139576
0.001152
0.000214227
0.000204352
0.00020766
0.000103099
0.00116652
0.000183937
0.0020284
0.00164685
0.00128531
0.000922206
0.000332102
0.000108733
0.000728017
0.00118288
0.00163208
0.00113301
0.00093822
0.00015088
0.000119926
8.14022e-05
7.24941e-06
0.000908578
0.000109703
0.00223956
0.001697
0.00132346
0.000980219
0.000644
0.000138625
8.72186e-06
0.000443195
0.000977916
0.00188091
0.00130918
0.000914136
0.000734053
9.27037e-05
4.466e-05
4.63603e-06
0.000653264
5.76422e-05
0.00125553
0.00194708
0.00136941
0.00100912
0.000691595
0.000393026
1.45479e-05
0.000197851
0.00249248
0.00145371
0.00102808
0.000721015
0.000534431
3.76979e-05
1.52108e-06
0.00040813
3.12231e-05
0.00113317
0.000963833
0.00160768
0.0010507
0.000712237
0.000426927
0.000178168
3.3799e-05
0.00405001
0.00185572
0.00110061
0.000790055
0.000537637
0.000341801
1.08883e-06
0.000186946
0.00141726
0.00094737
0.00071676
0.00124655
0.000746586
0.000440612
0.000196632
2.72877e-05
0.00412105
0.00340717
0.00129414
0.000813103
0.000584921
0.000356958
0.000162508
2.63098e-05
0.00183977
0.00121069
0.000772494
0.0005074
0.000886794
0.000465257
0.000204846
3.21036e-05
0.00546785
0.0033363
0.00264584
0.000831271
0.000579154
0.000398119
0.000181858
2.42987e-05
0.00217777
0.00146715
0.0010006
0.000604814
0.000331506
0.000550682
0.000218705
3.50788e-05
0.00451405
0.00469144
0.00255953
0.00182871
0.000482855
0.00039695
0.000221601
3.48178e-05
0.00236272
0.00172918
0.0011209
0.000785305
0.00044164
0.000188031
0.000260363
3.95333e-05
0.00400898
0.00376528
0.00382594
0.00183577
0.00107081
0.000252632
0.000248261
6.20137e-05
0.00238555
0.00187165
0.00131701
0.000808109
0.000560777
0.000285423
7.84896e-05
5.33475e-05
0.00382091
0.00337774
0.00302176
0.00293001
0.00121976
0.000476703
0.000133463
9.56448e-05
0.00222804
0.00189042
0.00142248
0.000947986
0.000533793
0.000326954
0.000130717
1.52256e-05
0.00377173
0.00320583
0.00271203
0.00229299
0.00205146
0.000700026
0.000144717
9.40209e-05
0.0018688
0.00177234
0.00143751
0.00102199
0.000626263
0.000301681
0.000124391
1.38425e-05
0.0039283
0.00316382
0.00257102
0.0020585
0.00162425
0.00122316
0.000303498
4.00588e-05
0.00142728
0.0014903
0.00135218
0.00103349
0.000674084
0.000354744
0.000117236
9.3876e-06
0.00443681
0.00327262
0.00253572
0.00195289
0.00144424
0.00104264
0.000417392
9.06173e-05
0.0010924
0.00121608
0.00113909
0.000975076
0.000682255
0.000381305
0.00013964
9.39386e-06
0.00518646
0.00375472
0.00260516
0.00192479
0.00137315
0.00089196
0.000556583
3.59373e-05
0.00125117
0.000913512
0.00100253
0.000821994
0.000645287
0.00038638
0.000150519
1.31721e-05
0.00427766
0.00434123
0.00309298
0.00196153
0.00135203
0.000853282
0.000434119
0.000182481
0.00220892
0.000961741
0.000746213
0.000784768
0.000543525
0.000366311
0.000152859
1.51727e-05
0.00417802
0.00355108
0.00333858
0.0024533
0.00136498
0.000838409
0.000419415
0.000123276
0.00202481
0.00191176
0.00071299
0.000585205
0.000558084
0.000307655
0.000144947
1.56557e-05
0.00274443
0.00365356
0.00279758
0.00226128
0.00185574
0.000838521
0.000410188
0.000120349
0.0019453
0.0016896
0.00157263
0.000503532
0.000427459
0.000324387
0.000120234
1.42481e-05
0.00195301
0.00215527
0.00306826
0.00206011
0.00129451
0.00126519
0.000406616
0.000115657
0.00187618
0.00161789
0.00135861
0.00121488
0.000328587
0.000275842
0.000123401
1.00564e-05
0.00168388
0.00153599
0.00163193
0.00243967
0.00139097
0.000593943
0.000605514
0.000112957
0.00181152
0.00156261
0.00129528
0.00103894
0.000861609
0.000186266
0.000125356
9.38795e-06
0.00141406
0.00135456
0.00119005
0.00118076
0.00181542
0.000851445
0.000207715
0.000129782
0.00191325
0.00186847
0.00150148
0.00125157
0.00098444
0.000736034
0.0005332
7.70904e-05
1.26e-05
0.00139086
0.00115207
0.00106747
0.000904806
0.000810505
0.00122637
0.000467929
5.04857e-05
0.00136998
0.00179332
0.00159693
0.00119071
0.00095149
0.0006924
0.000457016
0.000249946
1.3955e-05
0.00161562
0.0011568
0.000931504
0.000825074
0.000659018
0.000509105
0.000703178
0.000229341
0.000565629
0.00120781
0.00119354
0.0016577
0.00131036
0.000896184
0.000669274
0.000426016
0.000213197
4.94541e-05
0.00140813
0.000941694
0.000734337
0.000612837
0.000453101
0.000283684
0.000262792
0.000407939
0.000501481
0.00116315
0.00101648
0.000985515
0.00150875
0.00100955
0.000624263
0.000411381
0.000196403
3.72598e-05
0.000630531
0.000940877
0.00116933
0.000736684
0.000545856
0.000417535
0.000276228
0.000121629
0.000279801
0.000399673
0.000994794
0.000819402
0.000762983
0.00134485
0.000710643
0.000380245
0.000188084
3.21255e-05
0.000523482
0.000815863
0.000914674
0.00053653
0.000361877
0.000232618
9.74555e-05
0.000183301
0.000308841
0.000814195
0.000623464
0.000537591
0.00116067
0.00043037
0.000171694
2.93564e-05
0.000418982
0.000677283
0.000659924
0.000343258
0.000184331
6.58339e-05
0.000109693
0.000231113
0.00062759
0.000434764
0.000321844
0.000953832
0.000189809
2.53534e-05
0.000317713
0.000528755
0.000413497
0.000163471
3.6115e-05
5.94187e-05
0.000163935
0.00044169
0.000258526
0.000132431
3.08771e-05
0.000220521
0.000376407
0.0001903
2.47077e-05
3.22345e-05
0.000101542
0.000263587
0.000103692
1.30151e-05
0.00013027
0.000226756
2.73921e-05
4.18671e-05
0.000105293
7.69107e-06
4.96167e-05
9.05179e-05
1.35473e-06
7.52732e-06
1.96988e-06
5.85613e-06
0.000739586
0.000739078
0.000740663
0.000740914
0.000741801
0.000741022
0.000741164
0.000742199
0.00074003
0.000738882
0.000740164
0.000740599
0.00074143
0.000741365
0.000742038
0.000744865
0.000758727
0.000764159
0.000768484
0.000778204
0.000781939
0.000743998
0.000747462
0.000741881
0.000743748
0.000742496
0.000740693
0.000742166
0.000743594
0.000741021
0.000794422
0.000798707
0.000740015
0.000740078
0.000740979
0.000741195
0.000742319
0.000742137
0.000745565
0.000748125
0.000751272
0.000753322
0.000756762
0.000764364
0.000771631
0.000775573
0.000789698
0.00079399
0.00081911
0.000820905
0.000750108
0.000753161
0.000755796
0.000759576
0.00076406
0.000771558
0.000780658
0.000743744
0.000747904
0.000741673
0.000742642
0.000742637
0.000740877
0.000743438
0.000744614
0.00074238
0.000778208
0.000786195
0.000840019
0.000849049
0.000808818
0.000808851
0.000833274
0.000739863
0.000740624
0.00074123
0.000742448
0.000743886
0.000745454
0.000749441
0.000751011
0.000757928
0.000759935
0.000764744
0.000770891
0.000788069
0.000792353
0.000807437
0.000808937
0.000830982
0.00083409
0.000860058
0.000869249
0.000906347
0.000899715
0.000922869
0.000747039
0.000751969
0.00075349
0.000758207
0.000763774
0.00074376
0.000746849
0.000741637
0.000741949
0.00074359
0.000741541
0.000744498
0.000744469
0.000744742
0.000763703
0.000780113
0.000781031
0.000803563
0.00081157
0.000905968
0.000852848
0.000892766
0.000835212
0.000850116
0.000742884
0.000743158
0.000745435
0.000746144
0.000750069
0.000750591
0.000757304
0.000756254
0.000766234
0.000762639
0.000776601
0.00078038
0.000814808
0.000814325
0.000836083
0.000838243
0.000857277
0.000866043
0.000885776
0.000896464
0.000950193
0.000951801
0.000999147
0.00101829
0.000982303
0.00102474
0.00103104
0.00122924
0.000746521
0.000751769
0.00075309
0.00075697
0.00074594
0.000745379
0.000743833
0.000746528
0.000742157
0.00074197
0.000744432
0.000743751
0.000741998
0.000746275
0.000745148
0.00076091
0.000772225
0.000780735
0.00152627
0.0013512
0.00149878
0.000800633
0.000803336
0.000830279
0.000844184
0.000906999
0.000919773
0.00106664
0.000971904
0.000861267
0.000910242
0.000750655
0.000748086
0.000754162
0.000750699
0.000759053
0.000754931
0.000764518
0.000762227
0.00076592
0.00077099
0.000781131
0.000783484
0.000792877
0.000818014
0.000846966
0.000822264
0.000849895
0.000970167
0.000970698
0.00096412
0.00103061
0.00203174
0.00209464
0.00175619
0.00117914
0.00117968
0.00129777
0.00124789
0.00125001
0.00137629
0.00138815
0.00186989
0.00156529
0.0035523
0.00332303
0.0033997
0.00210662
0.00299641
0.00280577
0.00246304
0.0021233
0.000746581
0.000750848
0.000750457
0.000755457
0.000744147
0.000743567
0.000743951
0.000745656
0.000742593
0.000742566
0.000742171
0.000746427
0.000745441
0.00074428
0.000743668
0.000760354
0.000774022
0.000803164
0.000781814
0.000798203
0.0036633
0.00367501
0.00284488
0.00272631
0.00214774
0.00111906
0.00135806
0.0015474
0.00192793
0.000837198
0.000839132
0.00084779
0.000846799
0.000891451
0.000903147
0.000991029
0.000977055
0.00105964
0.00363317
0.00342506
0.00126148
0.00328221
0.00288476
0.0026366
0.00148383
0.00179055
0.00189221
0.002631
0.000780026
0.000767333
0.000783837
0.000770265
0.000786342
0.000775309
0.000789898
0.000790315
0.000798762
0.000796453
0.000809963
0.000811128
0.000849207
0.000876195
0.000929318
0.00090187
0.00113784
0.00133104
0.00109987
0.00173927
0.001427
0.0013273
0.00162977
0.00146094
0.0014378
0.00252556
0.00304926
0.00350317
0.00304509
0.00268181
0.00228416
0.00180508
0.00167117
0.00184514
0.00200662
0.00260064
0.00190793
0.00204315
0.00348528
0.00355024
0.00361283
0.00369959
0.00357021
0.0034036
0.00329251
0.00330271
0.00138576
0.00136691
0.00284733
0.00297154
0.0015337
0.00160432
0.0019116
0.00254614
0.00207288
0.00240945
0.000746577
0.000749733
0.00074911
0.00075858
0.00074321
0.000742992
0.000742975
0.000743889
0.000745189
0.000746442
0.000745197
0.000744521
0.000743516
0.00074339
0.000743107
0.000758621
0.000774317
0.000775626
0.000794996
0.000799467
0.000826093
0.000793883
0.00349782
0.00374822
0.00338287
0.00371054
0.00365121
0.0027412
0.00332396
0.00262466
0.00215654
0.000839145
0.00191851
0.00118137
0.00173658
0.00135153
0.000879485
0.000875516
0.000901259
0.000888515
0.000922115
0.000910526
0.00103343
0.00102581
0.00117921
0.00369734
0.00339327
0.00375788
0.00113347
0.00120531
0.00095219
0.00323896
0.00280153
0.00265962
0.00180237
0.00114186
0.00157864
0.000621102
0.000826177
0.00386844
0.00129104
0.000684534
0.000841878
0.000776918
0.000875285
0.000863615
0.000902818
0.00094296
0.000879324
0.000870958
0.000944543
0.000952435
0.00114376
0.0012155
0.00169304
0.00132857
0.00174637
0.00134754
0.00131178
0.00176887
0.00148357
0.00160925
0.00186895
0.00223713
0.00184433
0.00156219
0.00203079
0.00180997
0.00215271
0.00203306
0.00274179
0.00314702
0.00354129
0.00335292
0.00294882
0.00246967
0.00247849
0.00227138
0.00280574
0.00231892
0.00251988
0.00360735
0.00349901
0.00368537
0.00355592
0.00362724
0.00333165
0.0033907
0.00287811
0.00312541
0.00303471
0.00146095
0.00162576
0.00247874
0.00263909
0.00227137
0.0021556
0.0019617
0.00075756
0.000746432
0.000748859
0.000748617
0.000743111
0.000743738
0.000744836
0.000759342
0.000745966
0.000744883
0.000744502
0.000743738
0.000743854
0.000743356
0.00074383
0.000743902
0.000746841
0.000745111
0.000744487
0.000748489
0.000748047
0.000750372
0.000772696
0.000773912
0.000776286
0.000785465
0.000843272
0.000813566
0.000812708
0.000796967
0.0038131
0.00380631
0.00354045
0.00244885
0.00335264
0.00284041
0.000876056
0.000907873
0.000924028
0.00241617
0.00142215
0.0022595
0.00154129
0.000935595
0.000923757
0.00100512
0.000988132
0.00116004
0.00116862
0.00134216
0.00376734
0.00378206
0.00357434
0.00387899
0.00392616
0.00339621
0.000839739
0.000904331
0.000674249
0.00294102
0.00271332
0.00207968
0.00150908
0.000864592
0.0091128
0.00820958
0.00217188
0.000903543
0.00742725
0.00528229
0.00139159
0.00090755
0.00114875
0.000909597
0.0010765
0.000992932
0.00112892
0.00127575
0.0012493
0.00177951
0.00180751
0.0015086
0.00223577
0.00173237
0.00194822
0.00250699
0.00247215
0.00270181
0.00222166
0.00239222
0.00258342
0.0028707
0.00222877
0.00242749
0.00264753
0.00234703
0.00273332
0.00243591
0.00348812
0.00319336
0.00339294
0.00330585
0.00307409
0.00305385
0.00318725
0.00305996
0.00297735
0.00365288
0.00349448
0.0034176
0.00352653
0.00349085
0.00302816
0.00328121
0.00257307
0.00277336
0.00215372
0.00228754
0.000756056
0.000753082
0.000749752
0.000756816
0.000744116
0.00074602
0.000747542
0.000754939
0.000761353
0.000745233
0.000744223
0.000744298
0.000743611
0.000744014
0.000743643
0.000744609
0.000744776
0.000748056
0.000742029
0.000747126
0.000748465
0.000751015
0.000752571
0.000771116
0.000774582
0.00078565
0.000794355
0.000861648
0.000843536
0.000844621
0.00080926
0.00317628
0.00330888
0.00384369
0.00092505
0.000944247
0.000943728
0.00103278
0.000990953
0.00233788
0.00297736
0.00165307
0.00209748
0.00138029
0.00128742
0.00168947
0.00168188
0.00149841
0.00370265
0.00391704
0.00394143
0.00374368
0.00374756
0.00351841
0.00303337
0.00276568
0.000615842
0.0007046
0.00239456
0.00188423
0.00145985
0.000788094
0.00915404
0.0103083
0.00382686
0.00830511
0.010174
0.00984347
0.0055098
0.00340438
0.00942709
0.00895589
0.00456682
0.00252688
0.00352397
0.0020427
0.00293834
0.00185384
0.00252895
0.00252206
0.00203709
0.00300793
0.00261286
0.00261781
0.00252045
0.00265106
0.00315511
0.00306933
0.0031159
0.00334479
0.00306553
0.00279505
0.00324001
0.00342031
0.00288899
0.00317168
0.00338486
0.00308288
0.00338538
0.00361087
0.00345836
0.00359917
0.00346837
0.00357049
0.00344462
0.00345078
0.00347564
0.00355081
0.0035423
0.0031546
0.00337509
0.00269573
0.00284749
0.00216579
0.00232803
0.000759238
0.000756839
0.000756165
0.000753958
0.000749568
0.00074997
0.000753601
0.000759568
0.00076527
0.00074698
0.000741815
0.000746838
0.000742278
0.000748299
0.000744487
0.000751187
0.000746276
0.000747607
0.000749203
0.000750654
0.000752759
0.000754039
0.000775842
0.000776757
0.000787064
0.000818561
0.000801348
0.000780892
0.000912171
0.000872275
0.000876373
0.000846125
0.000953756
0.00383018
0.00337852
0.000978716
0.000930983
0.00121195
0.00111449
0.00181943
0.00214911
0.0022092
0.00210917
0.00305123
0.00257972
0.0022899
0.00248282
0.00234505
0.00394852
0.00414303
0.0037781
0.00396632
0.00323939
0.0029368
0.00237637
0.00219279
0.00189126
0.00179668
0.000609072
0.00134834
0.00767522
0.00987825
0.00229525
0.00576145
0.00967003
0.0106804
0.00857518
0.00738793
0.01071
0.0102589
0.00694944
0.00582207
0.00571917
0.00380074
0.00439583
0.0035158
0.00316397
0.00331363
0.00416147
0.00345188
0.00393298
0.00334507
0.00360645
0.00363576
0.0038831
0.00378911
0.00375861
0.00362714
0.00356753
0.00335304
0.00366465
0.00381422
0.00345286
0.00361696
0.00372681
0.00359442
0.0037068
0.00358736
0.00354888
0.00355195
0.0036423
0.00363208
0.00361944
0.00326304
0.00342266
0.00276578
0.00293818
0.00222345
0.00239949
0.000788304
0.000667286
0.000759282
0.000760242
0.000759202
0.00075762
0.000756803
0.000754808
0.00075666
0.000757971
0.000763633
0.000763771
0.000780424
0.000747351
0.000746568
0.000748212
0.000748296
0.000751834
0.000749116
0.00074998
0.000751788
0.000753125
0.000753989
0.000755736
0.000775616
0.000799434
0.000803364
0.0008499
0.000792965
0.000800068
0.00095249
0.000895255
0.000906635
0.000849652
0.00101146
0.00115388
0.000905642
0.00389775
0.00373781
0.00188685
0.00167592
0.00240235
0.00351803
0.00316834
0.00285679
0.00306662
0.00341799
0.0036348
0.00305436
0.00384632
0.00446607
0.00305284
0.00354182
0.00254832
0.00225133
0.00181513
0.00166871
0.000597879
0.000906313
0.0059746
0.00920825
0.00156037