/*--------------------------------*- C++ -*----------------------------------*\
  =========                 |
  \\      /  F ield         | OpenFOAM: The Open Source CFD Toolbox
   \\    /   O peration     | Website:  https://openfoam.org
    \\  /    A nd           | Version:  8
     \\/     M anipulation  |
\*---------------------------------------------------------------------------*/
FoamFile
{
    version     2.0;
    format      ascii;
    class       volScalarField;
    location    "17000";
    object      k;
}
// * * * * * * * * * * * * * * * * * * * * * * * * * * * * * * * * * * * * * //

dimensions      [0 2 -2 0 0 0 0];

internalField   nonuniform List<scalar> 
4109
(
0.0294931
0.0310435
0.0297415
0.031013
0.0317424
0.0314665
0.0319628
0.0301485
0.0330108
0.032545
0.0325709
0.0333187
0.0298492
0.031691
0.032409
0.0337109
0.0334961
0.03351
0.0338681
0.0325536
0.0298998
0.0313755
0.0314093
0.0345923
0.0346237
0.0350342
0.0295898
0.0316269
0.0298769
0.0348557
0.0335083
0.0328084
0.0313739
0.031291
0.0322225
0.0351654
0.0350532
0.0361742
0.0318926
0.029847
0.0315746
0.0317702
0.0302765
0.0355139
0.0341217
0.0954772
0.0479411
0.0334854
0.0329018
0.0312445
0.0322424
0.0358538
0.0366372
0.0379046
0.0336102
0.0317951
0.029364
0.031897
0.0323663
0.0331438
0.0328779
0.121495
0.0367272
0.035103
0.0344441
0.0416778
0.0870447
0.0337479
0.0327681
0.0324856
0.0393814
0.0373379
0.0425474
0.0413715
0.0411864
0.0341545
0.0340538
0.0326711
0.0311611
0.0328946
0.0325822
0.0329289
0.0334804
0.0336149
0.038435
0.0452486
0.100138
0.131039
0.132411
0.0379105
0.0375049
0.0358032
0.0351128
0.0345493
0.0384903
0.0665244
0.0337304
0.0325641
0.0427003
0.0410166
0.0398859
0.0429949
0.043713
0.0432582
0.0434024
0.0352867
0.0347662
0.0339333
0.0321076
0.0341318
0.0388436
0.0333685
0.0338817
0.0341181
0.0346739
0.138198
0.052745
0.0664462
0.0893378
0.140016
0.137566
0.0432871
0.0397092
0.0385823
0.036838
0.0361073
0.0354207
0.0344097
0.0669178
0.0344508
0.0338111
0.043123
0.0417124
0.0448116
0.0440366
0.0455689
0.0443332
0.035968
0.0356527
0.0355718
0.0337216
0.0348148
0.0399905
0.0339472
0.0345554
0.0350242
0.0352688
0.124858
0.0734869
0.140768
0.0934725
0.143824
0.0504019
0.0405643
0.0394826
0.0376553
0.0368704
0.0361798
0.0354499
0.0343819
0.0614522
0.0331608
0.0426388
0.0412535
0.0456743
0.0437598
0.046447
0.0468461
0.0476455
0.0371339
0.0366143
0.0363307
0.0345557
0.0358001
0.041212
0.0347743
0.0354559
0.0356977
0.0363703
0.0857417
0.156849
0.0884551
0.147529
0.14775
0.0511649
0.038783
0.0397309
0.0378945
0.0361476
0.0370804
0.0356177
0.067298
0.0340351
0.0409557
0.0420216
0.0451887
0.0433404
0.0464316
0.0480914
0.0477229
0.0507254
0.0379033
0.0376175
0.0376499
0.0361746
0.0360476
0.0414327
0.035504
0.0361264
0.0367111
0.0370907
0.0883023
0.158452
0.154116
0.0931406
0.157207
0.0507718
0.0388934
0.0400826
0.0375247
0.0364925
0.068812
0.0349182
0.0411787
0.0424252
0.0445454
0.0436488
0.0459791
0.0480246
0.0491898
0.051137
0.053491
0.0391802
0.0385746
0.038398
0.0372315
0.0369125
0.0424615
0.0370112
0.0362538
0.0400883
0.0375824
0.0382753
0.0848953
0.166431
0.0967845
0.161532
0.163418
0.0516257
0.0392032
0.0399782
0.0378969
0.0722163
0.0353531
0.0415114
0.0424203
0.0449574
0.0439933
0.0463103
0.0473383
0.0495491
0.0514384
0.0529531
0.0570317
0.0401949
0.0393392
0.0387303
0.0410629
0.0372226
0.0428827
0.0374982
0.0414013
0.0391362
0.0387238
0.173589
0.0846203
0.168888
0.100555
0.173544
0.0522183
0.178178
0.039002
0.040352
0.0738784
0.0361576
0.0414868
0.0426747
0.0450578
0.0440028
0.0466196
0.0476818
0.0489256
0.0514043
0.0533722
0.0562288
0.0566062
0.0607034
0.0393254
0.0407661
0.0390695
0.0422314
0.042458
0.0379198
0.0437158
0.0391343
0.0404115
0.0397641
0.0849737
0.181505
0.175592
0.0991198
0.179861
0.052939
0.192185
0.184677
0.201925
0.165711
0.185362
0.156429
0.0883273
0.0370704
0.0403152
0.0423386
0.0432156
0.0439437
0.0454345
0.046757
0.0477076
0.0491797
0.0578432
0.0504672
0.0532129
0.0559857
0.0613238
0.0648614
0.0632742
0.0693733
0.0416362
0.0411542
0.0434469
0.0438744
0.0414032
0.039233
0.0452224
0.0398999
0.0409902
0.087492
0.194265
0.181025
0.052867
0.291805
0.259642
0.201859
0.172462
0.195364
0.221414
0.0754763
0.0759825
0.0811417
0.159978
0.149359
0.151417
0.148046
0.159317
0.150555
0.0387211
0.0452336
0.0452829
0.0459878
0.0606697
0.0470052
0.0479489
0.0493294
0.0507211
0.0577031
0.0522391
0.0552907
0.0651246
0.0617056
0.0681427
0.0678822
0.0765104
0.0808355
0.0429087
0.0436708
0.0450707
0.0450186
0.0427835
0.0421231
0.0402973
0.0449207
0.0414816
0.0915153
0.218397
0.302446
0.258241
0.177273
0.194673
0.221846
0.0795141
0.0814118
0.0869646
0.0826626
0.085638
0.132774
0.139184
0.139541
0.147218
0.160072
0.240376
0.119258
0.044124
0.0474636
0.0471607
0.0600608
0.0611583
0.0491738
0.0491162
0.0506093
0.0523905
0.05714
0.0540081
0.0657927
0.0637523
0.0692208
0.0721347
0.0768433
0.0786503
0.0456585
0.0449447
0.0423631
0.0475729
0.0465223
0.0439286
0.0434544
0.0497168
0.0429093
0.041791
0.0498499
0.0973058
0.294377
0.324317
0.260233
0.176716
0.19758
0.225335
0.0820357
0.0895074
0.0979474
0.087682
0.0919248
0.122685
0.10927
0.0871524
0.0904033
0.129305
0.137202
0.147586
0.158635
0.257657
0.211401
0.0650488
0.0491768
0.0496749
0.0593154
0.0612047
0.0502859
0.0506703
0.0523627
0.0541236
0.0560351
0.0663927
0.0639626
0.0696927
0.0728347
0.0749041
0.0782349
0.0475254
0.0496678
0.0476117
0.0438727
0.043934
0.0454458
0.0467594
0.0447534
0.0509279
0.0485202
0.169915
0.222051
0.0434372
0.0412714
0.304913
0.257193
0.255513
0.326934
0.265677
0.17739
0.199507
0.230036
0.0861815
0.0808368
0.0934813
0.0994576
0.0972087
0.107371
0.118065
0.0920539
0.0961632
0.127289
0.134558
0.147115
0.162411
0.318251
0.273414
0.319552
0.0649522
0.0524502
0.0511497
0.0581017
0.0604347
0.0523506
0.0522429
0.0538896
0.0560982
0.0628431
0.0655458
0.0683769
0.0715453
0.07466
0.0773511
0.0791724
0.05073
0.0507088
0.0453182
0.0450457
0.0462647
0.0476403
0.0493121
0.0529671
0.0500676
0.0451154
0.0510821
0.055702
0.31422
0.260681
0.243283
0.192409
0.191702
0.331402
0.261553
0.17987
0.190323
0.209855
0.0906919
0.0845432
0.0826235
0.117015
0.102104
0.106039
0.0975871
0.101434
0.125649
0.133304
0.149907
0.164021
0.0870285
0.350391
0.329255
0.352845
0.0777321
0.0551251
0.0538544
0.0581752
0.0604453
0.0540304
0.0539129
0.0560533
0.0628485
0.0654781
0.0682847
0.0713624
0.0739964
0.0759228
0.0790993
0.0798322
0.0532129
0.054194
0.0469657
0.0469711
0.0482613
0.0496738
0.0508926
0.0548004
0.0517955
0.0508241
0.0469149
0.0479007
0.311106
0.166955
0.230566
0.222496
0.192826
0.334703
0.262779
0.175032
0.195203
0.215467
0.241861
0.0956993
0.0839856
0.0893884
0.0840318
0.103494
0.114226
0.108682
0.12574
0.138973
0.152621
0.160453
0.0879219
0.386876
0.371451
0.405546
0.0809136
0.0590819
0.0559646
0.0604227
0.0579751
0.0560393
0.056197
0.062665
0.0653808
0.0709956
0.06797
0.0733245
0.0758573
0.0759436
0.0787374
0.0821516
0.056871
0.056096
0.0573879
0.04892
0.0487301
0.0508966
0.0524992
0.0535602
0.0530926
0.0487642
0.0504331
0.316673
0.255876
0.144123
0.150031
0.205882
0.197877
0.174268
0.271596
0.331827
0.178324
0.194489
0.211276
0.236283
0.101053
0.0855576
0.0936483
0.0868776
0.0896803
0.110237
0.114315
0.106576
0.127834
0.140724
0.150769
0.164765
0.114242
0.425762
0.426239
0.439771
0.0927243
0.0628343
0.0580689
0.0606818
0.0582862
0.0580179
0.0632399
0.0653627
0.0704025
0.0681896
0.0741608
0.0760722
0.0781836
0.0808137
0.0838559
0.060124
0.0598697
0.0596107
0.0555849
0.0509802
0.0510868
0.0525645
0.0534746
0.0544421
0.0507346
0.0545748
0.332287
0.280528
0.242757
0.220205
0.125446
0.133328
0.147221
0.189091
0.178081
0.162938
0.112964
0.273096
0.326601
0.331985
0.177865
0.194801
0.225571
0.211584
0.0993951
0.0881184
0.0924775
0.0893792
0.112206
0.119609
0.105151
0.165273
0.130088
0.137725
0.152394
0.113142
0.47313
0.482272
0.505319
0.0599296
0.0994943
0.0645946
0.0611477
0.0607649
0.0666951
0.0651655
0.0716397
0.0720622
0.0693426
0.0750061
0.0783801
0.0814369
0.0646471
0.0625503
0.0620266
0.0576443
0.0568252
0.0527315
0.0522501
0.0541413
0.055971
0.0525818
0.056208
0.0689927
0.0741641
0.276864
0.245261
0.214982
0.196168
0.120339
0.135278
0.150085
0.170769
0.160963
0.108479
0.0999263
0.0926451
0.0825023
0.0790683
0.316712
0.265745
0.316411
0.271536
0.166291
0.179113
0.192034
0.220965
0.098576
0.0905874
0.0934058
0.120369
0.112729
0.105503
0.102385
0.152049
0.151899
0.129711
0.141208
0.136833
0.561944
0.529994
0.526446
0.0666844
0.101136
0.0631769
0.0643479
0.0721649
0.0683714
0.0746816
0.0773104
0.0802707
0.0648863
0.0643759
0.059975
0.0586213
0.0573938
0.0549059
0.0544396
0.0561992
0.0607772
0.0546783
0.0761813
0.0696917
0.0729739
0.240222
0.219898
0.193322
0.175527
0.120687
0.137632
0.147274
0.15429
0.11371
0.0996839
0.102293
0.0776867
0.0909418
0.0802071
0.0844412
0.270056
0.251219
0.237679
0.216712
0.160549
0.174382
0.199627
0.149446
0.0968164
0.0934655
0.117314
0.108098
0.113227
0.106384
0.100771
0.142453
0.14388
0.130359
0.109734
0.615725
0.595884
0.585974
0.0834923
0.105993
0.0673842
0.0611303
0.0717543
0.0755899
0.0788879
0.0673075
0.0623843
0.0612879
0.0601526
0.0581436
0.0566673
0.0559436
0.0586214
0.0562869
0.0741112
0.0703321
0.211557
0.215162
0.197772
0.17387
0.157331
0.127472
0.135488
0.140605
0.116536
0.110487
0.102395
0.078811
0.0817585
0.0956394
0.0849412
0.0893226
0.224162
0.214856
0.211726
0.196732
0.140615
0.162656
0.171076
0.151435
0.194424
0.0963315
0.12077
0.11463
0.111044
0.10422
0.0994697
0.123612
0.130032
0.131213
0.115771
0.730894
0.687024
0.732777
0.133459
0.0708372
0.0790699
0.0747129
0.0781528
0.0650864
0.063498
0.0619533
0.0605186
0.0588308
0.0584205
0.0597689
0.058753
0.0741441
0.0679301
0.194005
0.195429
0.176158
0.155573
0.1426
0.125506
0.129216
0.116374
0.108725
0.101897
0.0777907
0.0812213
0.0959921
0.0856277
0.0902391
0.196333
0.189997
0.172801
0.126195
0.132678
0.142127
0.150054
0.175249
0.112162
0.107061
0.101981
0.117577
0.11505
0.122635
0.126151
0.85546
1.17253
0.321328
0.0750196
0.0880261
0.0781136
0.0665036
0.0650156
0.0628517
0.0610205
0.0603374
0.0622014
0.0711032
0.0691893
0.175154
0.173412
0.156032
0.141084
0.130885
0.119481
0.111175
0.103882
0.0975483
0.0744834
0.0782483
0.0918788
0.0823183
0.0868735
0.171672
0.173264
0.15635
0.127904
0.133963
0.140934
0.12328
0.155992
0.108651
0.104317
0.112294
0.113359
0.118378
0.198945
1.66891
1.61404
0.579555
0.080101
0.122151
0.0672455
0.0655821
0.0627099
0.0633864
0.0690088
0.0726282
0.0706923
0.156781
0.156541
0.14143
0.129762
0.12095
0.112623
0.105219
0.0989907
0.0758741
0.079843
0.0932561
0.0837555
0.0884257
0.154182
0.154669
0.142085
0.125249
0.129737
0.118804
0.141626
0.106208
0.10896
0.109898
0.112766
4.0569
0.331446
2.33268
2.47957
1.16912
4.49701
0.0682296
0.0658028
0.0670721
0.0668072
0.0772216
0.0734344
0.0713262
0.139985
0.140841
0.130337
0.120652
0.112196
0.10549
0.0990715
0.0773421
0.0806351
0.0940963
0.08502
0.088967
0.13751
0.137775
0.13022
0.119148
0.112973
0.127975
0.130351
3.27189
3.60149
0.636023
3.59787
3.58061
4.88535
3.9669
6.43334
0.0691852
0.0659337
0.0704063
0.0706079
0.094338
0.0744883
0.0709335
0.13114
0.130744
0.120701
0.112466
0.105464
0.0995873
0.0780783
0.0817625
0.094423
0.0898919
0.0856633
0.129611
0.122246
0.113346
0.120803
0.12326
0.122457
2.21281
2.86067
3.1807
1.20766
4.51371
3.48135
6.20024
6.25894
0.0709381
0.0705045
0.0754159
0.134968
0.075358
0.07157
0.11844
0.118977
0.11166
0.104913
0.0994221
0.0779733
0.0825346
0.094641
0.0904024
0.0862713
0.122343
0.115437
0.116252
0.11843
0.116892
0.116214
1.93753
1.80979
2.49662
2.78413
3.44199
5.86318
4.10774
3.02864
5.86386
6.05934
0.073159
0.0746838
0.0803163
0.0744931
0.0754619
0.0775514
0.11404
0.106965
0.102066
0.0968117
0.0814784
0.0818164
0.093736
0.0890156
0.086767
0.115173
0.112629
0.113614
0.1119
0.110958
1.5237
1.47772
2.16402
2.39517
6.31221
2.98053
5.59536
5.42201
3.68309
2.58967
5.49526
5.85203
0.074906
0.0774225
0.0775025
0.0788067
0.0819799
0.109998
0.105374
0.101391
0.0970378
0.0836363
0.0848373
0.0936755
0.0902974
0.0875765
0.109164
0.10728
0.105298
6.14624
1.19376
1.20117
1.84525
1.98297
5.89659
2.58174
5.25541
5.15516
4.96538
3.23822
2.13123
5.09644
5.64047
0.0772138
0.0780766
0.0802056
0.0816228
0.104232
0.10242
0.0998782
0.0967538
0.0841731
0.0862862
0.0938315
0.0910668
0.0885803
6.7326
5.5723
0.934042
0.961379
1.51146
1.46818
5.43263
2.22676
5.10361
4.80229
4.70482
4.49116
2.74401
1.57428
4.65436
5.42209
7.71459
6.19475
5.00246
0.725796
0.737688
1.09826
0.598979
4.94391
1.88986
4.96082
4.68332
4.35583
4.24499
3.98874
2.11197
0.670403
4.12961
5.19115
8.42289
7.31263
5.61337
4.43909
0.548987
0.491832
0.398214
4.42965
1.55534
3.49738
4.65078
4.26069
3.91289
3.76504
3.42513
1.04654
3.41822
9.77856
7.94414
6.84076
5.00016
3.87367
0.367063
0.127298
3.8593
1.36419
2.74128
3.0515
4.32763
3.83802
3.46203
3.23628
2.71287
2.17247
11.2158
8.98523
7.48794
6.2976
4.36052
3.27769
0.083265
3.12252
1.42686
2.37751
2.62985
3.98888
3.4046
2.97474
2.57816
1.51227
11.8427
11.1951
8.06446
7.02303
5.65864
3.67926
2.5627
1.71954
1.3082
1.27813
2.05776
2.21921
3.62329
2.93452
2.37895
1.48398
12.1205
11.5247
10.9287
7.07321
6.51628
4.8874
2.8896
1.35727
1.48533
1.1987
1.14332
1.76389
1.8084
3.20534
2.35865
1.39284
8.18405
12.1262
10.9382
10.3765
6.03189
5.9547
3.93778
1.65703
1.59759
1.38047
1.09209
1.01807
1.48109
1.38856
2.66744
1.41464
6.91934
8.06595
11.8604
10.0689
9.52053
5.00146
5.17881
2.56362
1.60919
1.48253
1.27299
0.984482
0.89586
1.19431
0.949004
1.76069
6.28633
6.62059
7.72452
11.3884
8.97461
8.30231
4.2538
3.46479
1.51209
1.49314
1.36503
1.15979
0.870482
0.763157
0.869436
0.468723
6.2999
6.10207
6.19831
7.22101
10.6529
7.6405
6.74887
3.36288
1.33094
1.40528
1.37476
1.24211
1.03574
0.740106
0.587321
0.403822
6.84955
6.0986
5.7866
5.70346
6.61512
9.52142
6.08591
5.89997
1.42722
1.21902
1.29607
1.25104
1.10838
0.889697
0.566478
0.262901
8.07479
6.54333
5.77265
5.38181
5.15286
5.93071
7.62508
3.77079
2.64722
1.27944
1.11041
1.18128
1.11655
0.952089
0.691082
0.250272
12.0251
7.94484
6.12321
5.36228
4.90318
4.53592
5.12256
5.11901
3.54043
2.30467
1.14511
1.00098
1.05554
0.95944
0.741514
0.33436
11.7551
12.0083
7.60149
5.63324
4.88017
4.34275
3.80744
4.02957
4.95585
3.08101
1.99872
1.0201
0.885029
0.907594
0.74794
0.371152
11.0539
11.4516
11.7163
7.09863
5.08799
4.3171
3.65698
2.87742
5.13983
4.64473
2.64864
1.71439
0.897683
0.752538
0.706826
0.377036
9.81916
11.0602
10.9218
11.1497
6.48335
4.47766
3.62861
2.76481
5.23692
4.71755
4.32292
2.23233
1.43934
0.764149
0.576797
0.348473
8.41618
9.06124
10.8576
10.1769
10.3391
5.74638
3.75174
2.72852
5.56609
4.78094
4.29226
3.98432
1.81861
1.15988
0.587334
0.25932
7.77255
7.95722
8.1909
10.4136
9.25441
9.19939
4.82646
2.80334
5.85964
5.12658
4.33434
3.86736
3.61868
1.39769
0.842448
0.262802
6.7536
7.36495
7.53236
7.30707
9.77193
8.26442
7.70027
3.52093
6.65224
6.26588
5.42429
4.67821
3.89331
3.4316
3.1992
0.95175
0.383055
6.13633
6.22203
6.89439
7.10655
6.42078
8.9507
7.24508
6.06935
5.08245
6.44259
5.93827
4.97201
4.22034
3.44423
2.95747
2.65535
0.456044
6.24906
5.56149
5.64283
6.36309
6.64545
5.52989
7.92853
5.78787
3.4088
4.53472
4.68591
6.22504
5.56944
4.49942
3.7416
2.95741
2.37274
1.726
5.84683
4.99021
5.02481
5.73117
6.10767
4.80404
6.44946
2.9444
2.06766
4.31035
4.02611
4.25861
6.00336
5.16702
3.99698
3.21259
2.36045
1.40382
2.44271
3.56275
5.39524
4.42588
4.37835
4.96412
5.3122
3.56474
2.53727
1.63366
3.82451
3.5457
3.81501
5.77799
4.71741
3.43173
2.55236
1.35592
1.9866
3.13524
4.91566
3.8608
3.69468
4.01694
3.51933
2.18498
1.28417
3.37747
3.09095
3.3498
5.54644
4.18035
2.71264
1.4397
1.61982
2.74883
4.40957
3.26612
2.90295
2.63984
1.85614
1.00831
2.95771
2.64625
2.83221
5.30104
3.44649
1.48571
1.31477
2.39046
3.8447
2.55439
1.6798
1.55413
0.786115
2.54658
2.17948
2.1683
2.14592
1.05079
2.04464
3.11441
1.35918
1.36812
0.596003
2.11091
1.60588
1.04415
0.805846
1.6813
1.73093
0.399717
1.568
0.662574
0.539193
1.23211
0.0958875
0.646686
0.148618
0.474821
0.0862871
0.084341
0.0856279
0.0856374
0.0870847
0.086857
0.0875062
0.0875385
0.0882496
0.0827381
0.0838419
0.0842684
0.085468
0.0857857
0.0869331
0.0875458
0.0918813
0.0933125
0.0946484
0.0968875
0.0983341
0.0884446
0.0892436
0.0882735
0.0884322
0.0887419
0.0883794
0.0896063
0.0893369
0.090377
0.101015
0.102177
0.0814158
0.0825202
0.0831422
0.084232
0.0848573
0.0858043
0.0867987
0.0878894
0.0888483
0.0898278
0.0909299
0.0923041
0.0941149
0.0955514
0.0986394
0.100127
0.105624
0.106365
0.0902313
0.0911044
0.0921596
0.0931226
0.0944978
0.0959441
0.098318
0.089636
0.0900937
0.0896197
0.0896328
0.0905179
0.0898749
0.0918757
0.0913558
0.0927016
0.0981481
0.0999623
0.110617
0.112287
0.104855
0.104604
0.109698
0.0804114
0.081437
0.082302
0.0833111
0.0842609
0.0852598
0.0864627
0.0873951
0.0891254
0.0902106
0.0916779
0.0929512
0.0969167
0.0983335
0.101507
0.102628
0.107158
0.108413
0.113543
0.115685
0.122012
0.122158
0.129121
0.0910776
0.0918021
0.0927629
0.0937812
0.0952512
0.0908134
0.0910862
0.0911649
0.090853
0.0924218
0.0916467
0.09512
0.0940639
0.0933455
0.095663
0.0993158
0.0995471
0.104579
0.106203
0.125775
0.113804
0.121439
0.110572
0.113477
0.0800091
0.0809393
0.0820813
0.0830793
0.0843398
0.085257
0.0867438
0.0876495
0.0892631
0.0902192
0.0924619
0.0945834
0.102677
0.0998802
0.106149
0.108624
0.113093
0.114578
0.119443
0.129145
0.134802
0.13565
0.149367
0.151999
0.14573
0.154273
0.15481
0.19602
0.0920557
0.0928144
0.093635
0.0945879
0.097469
0.096225
0.0920966
0.0921332
0.0927791
0.0923017
0.0952382
0.0942256
0.0934812
0.0996736
0.0983496
0.0959507
0.0983986
0.100293
0.248633
0.214728
0.307498
0.104694
0.105003
0.110558
0.112792
0.127396
0.129483
0.165378
0.144606
0.121938
0.12798
0.0807272
0.0813204
0.0829396
0.0835534
0.0853442
0.0858945
0.0878743
0.0886318
0.0917881
0.0910455
0.0953582
0.0967405
0.101603
0.103927
0.113406
0.111616
0.120832
0.12965
0.136615
0.13739
0.149227
0.714051
0.702067
0.49359
0.162195
0.171016
0.186287
0.192596
0.20245
0.217754
0.21832
0.491131
0.292783
6.43705
7.00344
6.85454
6.54061
7.16347
7.18543
6.95646
6.58318
0.093196
0.0935578
0.0945592
0.0954939
0.0971855
0.0961145
0.093479
0.0932972
0.0952796
0.0944605
0.0939421
0.1019
0.100516
0.0992004
0.0980619
0.0967059
0.0996362
0.105651
0.101572
0.104957
6.03601
5.06844
1.86202
1.31909
0.772521
0.174867
0.249587
0.305589
0.564732
0.112839
0.113178
0.114186
0.11372
0.125839
0.127914
0.139784
0.136139
0.164115
6.22946
6.92034
4.54356
7.14406
7.20567
7.19025
5.44532
6.07908
6.16782
7.1743
0.0869309
0.0845224
0.0886511
0.087311
0.0910478
0.0900458
0.093645
0.093482
0.0966158
0.0964055
0.100473
0.100425
0.108268
0.111086
0.116728
0.115716
0.121429
0.146837
0.124585
0.159681
0.211085
0.203443
0.247544
0.248691
0.243887
1.27985
1.78621
3.42015
2.48505
1.29559
0.996381
0.356672
0.394759
0.498894
0.50507
1.02128
0.59601
0.579898
3.88677
6.05892
4.96678
5.26965
6.15844
6.68997
6.9227
6.91581
4.97665
4.92447
7.12855
7.08255
5.57533
5.79484
6.38259
7.0196
6.59977
6.96471
0.0944609
0.0946745
0.0955556
0.0968526
0.0972286
0.0962145
0.0957139
0.095004
0.094638
0.103986
0.102515
0.101115
0.0999383
0.0988844
0.0978917
0.0975101
0.100508
0.100885
0.104796
0.105292
0.10974
0.104601
2.68336
4.52724
3.53018
5.91402
4.616
1.67622
2.70604
1.43468
0.752974
0.113222
0.609633
0.20001
0.348341
0.256038
0.123439
0.120323
0.129076
0.124371
0.132288
0.131009
0.149191
0.143299
0.200295
6.24666
7.08785
5.94685
4.28937
4.70188
3.65256
7.32353
7.42741
7.24719
5.99615
4.52809
5.61508
0.188851
0.103194
2.1112
0.646558
0.135751
0.105379
0.124274
0.105193
0.119335
0.104614
0.117815
0.112375
0.109803
0.121414
0.120454
0.142988
0.175998
0.164984
0.201335
0.28328
0.25248
0.33664
0.661726
0.377451
0.407491
0.90313
1.02969
0.552058
0.485712
0.655824
0.633554
0.798648
0.799468
1.92828
2.54668
3.68273
2.97796
2.08535
1.51551
1.16517
1.16947
1.75736
1.31086
1.42934
4.93853
4.32183
5.15466
6.16954
5.86781
6.84968
6.64579
7.10513
7.0115
7.05401
5.22026
5.77704
6.98947
7.00361
6.84513
6.81361
6.51183
0.0976858
0.0956965
0.095757
0.0966028
0.0971998
0.0964498
0.0961672
0.0983386
0.106113
0.104606
0.103011
0.101721
0.100582
0.0994377
0.0988004
0.0978642
0.108095
0.10574
0.107976
0.110326
0.108803
0.110229
0.101442
0.101332
0.101778
0.103437
0.114087
0.108354
0.109752
0.105489
4.6295
4.09901
3.03578
0.983815
2.53532
1.74129
0.119358
0.133567
0.13192
1.09836
0.262729
0.561232
0.364489
0.144536
0.140048
0.152631
0.148642
0.175954
0.165123
0.276814
4.41634
6.61403
7.22289
6.23349
5.30849
7.45571
3.35735
3.90574
2.72633
7.66235
7.44984
6.66668
5.50211
4.00026
4.74403
4.73974
1.19314
0.340549
4.56666
3.58409
0.686506
0.334984
0.521594
0.254453
0.401527
0.21624
0.342338
0.182537
0.247567
0.446209
0.779864
0.55504
0.962865
0.62092
0.758319
1.34626
1.67192
1.82997
1.18519
1.19731
1.86077
2.09368
1.24444
1.3752
1.67279
1.5838
1.95949
1.67418
3.94909
2.76603
3.31105
3.143
2.68346
2.53642
2.9085
2.18984
2.70097
5.38862
4.52436
6.74401
6.0595
6.3685
7.07484
6.97268
6.92171
7.00127
6.526
6.6138
0.10997
0.108458
0.0970661
0.0982446
0.0975379
0.0969996
0.0970137
0.0985756
0.0996985
0.104782
0.102922
0.102217
0.10075
0.100236
0.0991504
0.098847
0.0980958
0.106734
0.104837
0.105984
0.107102
0.105414
0.106762
0.101112
0.101729
0.103015
0.10567
0.120583
0.113675
0.11477
0.108649
1.7993
2.6527
3.52853
0.129601
0.142696
0.141334
0.163836
0.159181
0.784278
1.83954
0.360385
0.70962
0.198966
0.1828
0.273944
0.236029
0.369549
3.59656
5.12951
4.76354
6.87911
6.98567
7.36343
7.79384
7.72064
2.65538
3.60352
7.40941
6.47223
5.72727
4.05219
4.76362
4.7708
2.0863
4.79479
5.11644
5.63873
3.79034
2.39493
5.7865
6.27721
3.38024
1.73722
2.62085
1.23117
2.0186
1.02301
1.3599
1.58017
1.20682
2.1878
1.79521
1.7311
1.70384
1.82579
2.77649
2.87091
2.99902
3.31593
2.5353
2.37374
3.40239
3.59084
2.57439
2.82554
3.30436
3.11529
3.49654
4.70723
4.18897
4.54792
3.71745
4.26328
4.23137
3.98981
4.41043
6.37123
5.7063
6.97055
6.81804
6.91192
6.9262
6.35252
6.45675
0.111828
0.109318
0.107507
0.106011
0.0985781
0.0984299
0.0987408
0.0995359
0.100675
0.103867
0.102439
0.101764
0.100651
0.100239
0.0994196
0.099465
0.103702
0.104573
0.103088
0.104272
0.103446
0.104478
0.10207
0.102166
0.104025
0.109974
0.105683
0.102605
0.130517
0.121546
0.122593
0.115442
0.138668
3.15829
2.29808
0.154999
0.151638
0.185014
0.179619
0.263843
0.312886
0.249519
0.791155
2.07739
0.956643
0.49892
0.416894
0.863289
5.07902
4.23345
7.38395
6.75947
7.96417
7.85023
7.56663
7.28969
6.88424
6.53856
0.210484
0.705406
4.68045
5.55247
1.28241
3.89461
5.77822
5.4702
6.30827
6.05831
5.52905
6.20882
5.9286
5.31237
5.37356
3.55652
4.28994
3.29628
2.92006
2.89781
4.23719
3.34025
4.18587
3.51517
3.69368
4.28941
4.65817
4.60094
4.71067
4.25123
4.11725
3.76063
4.91955
5.09231
4.25922
4.44519
5.115
5.01028
5.81461
6.07984
5.63453
5.50583
5.80959
5.48513
5.69654
6.82115
6.70128
6.68386
6.72481
6.07305
6.1764
0.0883007
0.109321
0.112428
0.111046
0.109207
0.106993
0.105569
0.104043
0.0996432
0.0998266
0.100165
0.100279
0.102637
0.102369
0.101657
0.10091
0.10042
0.10006
0.101263
0.102194
0.101461
0.102485
0.102115
0.103026
0.10225
0.106256
0.10708
0.116222
0.105179
0.106734
0.142606
0.126316
0.130068
0.117103
0.159547
0.186488
0.168591
4.47278
2.79472
0.249424
0.210389
0.490237
0.408311
1.21254
1.04658
0.884289
2.32887
3.0597
1.65887
7.34244
6.22778
8.0965
8.21267
7.95855
7.56428
7.10579
6.74753
0.147958
0.453035
4.10877
6.35639
0.844116
2.38502
6.33691
6.15569
5.94288
6.54577
6.07211
5.58299
6.94266
6.23701
6.87156
6.45786
6.04477
6.03677
5.64046
4.70203
4.75364
5.93691
5.4172
5.16834
5.39471
5.61112
5.49952
5.7565
5.68183
5.63618
5.58226
5.88724
5.13174
5.41406
5.92286
5.9107
5.63834
5.73396
6.03602
6.07606
6.29363
6.22832
6.63639
6.40253
6.38116
6.46197
6.51017
5.76742
5.92036
0.0812888
0.0851349
0.0894924
0.108486
0.111028
0.110166
0.108877
0.108317
0.106996
0.105156
0.102738
0.104171
0.107606
0.108723
0.10144
0.100385
0.0997188
0.0998973
0.100681
0.0999316
0.0998272
0.100272
0.100895
0.100628
0.101575
0.101466
0.102139
0.103059
0.10553
0.10886
0.114517
0.117222
0.110779
0.139061
0.163154
0.125627
0.142427
0.177441
0.23146
0.200752
0.251282
0.389991
0.285246
6.40963
5.35206
1.11803
0.817706
2.52729
1.97232
4.38594
5.80124
3.95137
8.41258
8.36418
8.50075
8.02549
7.70616
7.19549
0.132913
0.320049
3.27326
6.21669
0.55899
1.58607
6.09952
6.91313
5.33422
5.5044
6.67893
5.91894
6.84436
6.61169
5.25088
5.76545
6.507
6.38559
6.50634
6.22895
6.43505
5.79569
5.99353
6.1244
6.12124
5.87705
5.92078
5.76581
5.79598
5.75955
5.65365
5.69992
5.57771
5.42374
5.41698
5.94646
5.93558
5.96712
5.85116
6.00695
5.95796
5.98483
5.86725
5.99533
6.23285
6.29569
6.00673
5.58526
5.75073
0.0798499
0.0815213
0.0836134
0.088262
0.0916278
0.107606
0.107288
0.106747
0.105892
0.105941
0.101945
0.103819
0.103084
0.104861
0.105328
0.105129
0.104386
0.105593
0.103394
0.103374
0.101401
0.101474
0.10349
0.100557
0.100018
0.100393
0.100161
0.101775
0.10029
0.100535
0.100847
0.101112
0.101415
0.101964
0.102342
0.10569
0.111405
0.107704
0.115583
0.124383
0.12211
0.130377
0.158404
0.18278
0.142561
0.161741
0.211533
0.277702
0.678958
0.613368
0.483604
0.913685
1.83636
1.79469
8.61213
7.78315
4.25601
4.42554
6.74958
7.91754
6.74775
9.18957
8.7093
8.47303
8.03792
0.125508
0.244991
2.48042
5.11497
0.386093
1.08116
5.20537
7.04082
5.64785
5.15756
6.79153
6.34778
5.66374
5.30656
4.962
4.94025
6.01048
6.12604
5.20829
5.65339
5.40159
5.83875
5.75952
5.79497
5.78918
5.42182
5.45105
5.01474
5.00198
4.89197
5.17003
4.77334
4.62976
4.06468
3.69951
4.36654
4.45195
5.39099
5.81363
5.8168
5.30337
5.40233
5.45359
5.40789
5.04269
5.4773
0.104966
0.0799022
0.0806991
0.0819038
0.0839122
0.0863021
0.0905899
0.0941414
0.0809467
0.080973
0.0825056
0.0822591
0.0844165
0.08374
0.0994838
0.0998619
0.0976155
0.0980872
0.0956139
0.0962184
0.0934578
0.0942583
0.0866422
0.0856732
0.0889929
0.0876986
0.091249
0.0921053
0.0898989
0.104495
0.103983
0.103446
0.103806
0.102818
0.102497
0.103224
0.102315
0.102511
0.101934
0.103083
0.100439
0.100736
0.098546
0.098895
0.102414
0.100983
0.10222
0.100842
0.101599
0.101809
0.101607
0.101806
0.102008
0.102694
0.103011
0.103094
0.102794
0.103466
0.109277
0.105128
0.11875
0.112476
0.123766
0.137559
0.132873
0.148777
0.186472
0.235144
0.167975
0.200942
0.291835
0.635668
3.16201
2.39613
3.24041
1.46921
3.15528
5.2273
6.03225
9.54319
9.42192
8.36462
9.49201
8.55012
9.65594
8.84419
0.118702
0.195614
4.60867
1.71787
2.76485
0.285309
0.752315
6.18874
6.87963
5.795
5.20492
6.58361
6.13339
6.62738
4.77336
4.68342
4.6891
5.27864
5.18844
4.42678
4.66455
4.68004
4.42982
4.85233
4.99533
4.53543
4.47185
4.07634
4.01884
3.53973
3.60955
3.83243
2.86451
2.87757
2.57346
2.58378
3.31435
4.85843
4.73305
3.61407
4.17993
4.02292
0.105103
0.0928494
0.0964419
0.0817874
0.0827011
0.0843153
0.0865935
0.0892359
0.0826013
0.0829237
0.0837866
0.0838488
0.0852589
0.0851751
0.0966906
0.0972925
0.0948325
0.0956538
0.0928283
0.093845
0.0907281
0.0920259
0.0870431
0.0866919
0.08879
0.0901208
0.0883473
0.102436
0.101959
0.101719
0.102487
0.102299
0.100005
0.100502
0.100096
0.10115
0.098245
0.0987096
0.0964144
0.0969364
0.102126
0.102778
0.102457
0.104146
0.103579
0.103976
0.104322
0.103831
0.104636
0.105737
0.104367
0.104614
0.104146
0.112436
0.107892
0.108357
0.126974
0.117309
0.133962
0.156661
0.151238
0.177414
0.20873
0.422898
0.204695
0.275172
0.616822
1.99399
6.18862
6.92844
6.09742
7.3568
3.97742
6.84213
8.5087
9.46618
10.4526
10.1616
10.258
0.116225
0.14599
0.200995
2.92382
4.90803
1.11653
2.1772
0.444625
5.4694
6.40811
5.35446
4.77204
5.88384
5.50226
6.33789
6.47742
6.05879
5.8107
4.2127
4.36555
4.39347
4.28833
3.94386
4.01385
3.92851
3.81746
3.96301
3.987
3.62794
3.60149
3.11158
3.19178
2.53069
2.64747
2.09504
2.14648
1.90796
1.823
3.29245
1.83754
2.80821
4.94065
0.0960648
0.101999
0.0893546
0.0930925
0.0838996
0.0852502
0.0871804
0.0845418
0.0849118
0.0854576
0.0855409
0.0866588
0.0866522
0.0947541
0.0953831
0.0931135
0.0938997
0.0913908
0.092277
0.0897607
0.0908069
0.0882038
0.0892992
0.0879205
0.10093
0.100875
0.100874
0.100672
0.0982255
0.099055
0.098776
0.100148
0.0965681
0.0972838
0.0949501
0.095669
0.102736
0.102124
0.104913
0.10395
0.109269
0.107568
0.110318
0.109464
0.106666
0.107693
0.11061
0.108391
0.106325
0.112139
0.107601
0.107718
0.121217
0.120619
0.139422
0.13715
0.174862
0.171375
0.232792
0.197636
0.317314
0.72885
0.261476
0.399743
1.73206
4.22616
6.44537
9.53975
9.6223
9.52585
9.79191
10.7348
10.7001
10.996
0.710009
0.105933
0.110114
0.138064
0.181522
0.332146
3.99372
1.6159
2.42661
5.61032
4.40948
4.37396
4.83361
5.62524
6.04341
4.82464
5.30265
6.14287
6.08737
5.61313
5.18772
3.78881
3.97601
3.62144
3.63964
3.52905
3.54848
3.41329
2.9537
3.22994
3.19767
2.44872
2.63801
1.98455
2.15578
1.63661
1.7571
1.4982
1.47358
0.0939167
0.0973986
0.0864669
0.0881789
0.090946
0.0862997
0.0877675
0.0870144
0.0874336
0.0878722
0.0879421
0.093334
0.0942507
0.0916772
0.0929245
0.0903374
0.0914923
0.0890376
0.0902305
0.0890408
0.101334
0.0999625
0.100115
0.100505
0.0973036
0.0981383
0.099836
0.0982541
0.0957118
0.0966617
0.0943775
0.0951852
0.105275
0.10402
0.104051
0.107983
0.106116
0.114916
0.114245
0.113484
0.115824
0.122416
0.119655
0.12012
0.117311
0.116222
0.11235
0.110094
0.120127
0.11674
0.123324
0.146894
0.136976
0.216527
0.217075
0.170511
0.202982
0.311215
0.314094
1.00397
2.03174
0.895756
3.80648
5.77332
7.66334
10.3462
11.7313
11.5406
11.4732
1.49599
2.00939
0.0999973
0.539406
1.02751
0.107974
0.112242
0.119691
0.153668
0.195731
0.316495
3.9012
3.15471
5.57896
5.13482
3.9108
4.27557
5.8729
5.9745
4.28936
4.80377
5.75766
5.58945
4.93942
3.37367
3.55624
2.95523
3.10188
3.11387
2.96441
2.52393
2.65801
2.09079
2.27475
1.75614
1.89736
1.43176
1.60795
0.0965788
0.0890847
0.0922263
0.094349
0.0946856
0.0884551
0.0900441
0.088678
0.0895389
0.0893461
0.0896051
0.0927244
0.0938909
0.0916055
0.0925775
0.0904046
0.0914576
0.0903344
0.0943906
0.100274
0.100001
0.101445
0.0992532
0.0981084
0.097025
0.101701
0.0971243
0.0962067
0.0961251
0.105107
0.103395
0.106931
0.109557
0.109698
0.114805
0.113537
0.123162
0.125325
0.128353
0.127276