/*--------------------------------*- C++ -*----------------------------------*\
  =========                 |
  \\      /  F ield         | OpenFOAM: The Open Source CFD Toolbox
   \\    /   O peration     | Website:  https://openfoam.org
    \\  /    A nd           | Version:  8
     \\/     M anipulation  |
\*---------------------------------------------------------------------------*/
FoamFile
{
    version     2.0;
    format      ascii;
    class       volScalarField;
    location    "17000";
    object      nut;
}
// * * * * * * * * * * * * * * * * * * * * * * * * * * * * * * * * * * * * * //

dimensions      [0 2 -1 0 0 0 0];

internalField   nonuniform List<scalar> 
4109
(
0.000666446
0.000661357
0.000658655
0.000666457
0.000669037
0.000677618
0.000672486
0.000677321
0.000674981
0.000656868
0.00066694
0.000678481
0.000668143
0.000671038
0.000676852
0.000677668
0.000666075
0.000673687
0.000679237
0.000675709
0.00066067
0.000678521
0.000673858
0.000678056
0.000673713
0.000668214
0.000656484
0.000672868
0.000677669
0.000681368
0.000677363
0.000676876
0.000668045
0.000671253
0.000677458
0.000682471
0.000673898
0.000667042
0.000667556
0.000669532
0.000667353
0.000662696
0.000673918
0.000681489
0.000678129
0.00148532
0.000825085
0.000677817
0.000677445
0.000663311
0.000673127
0.000677462
0.00067697
0.00067274
0.000675468
0.000660611
0.000660757
0.00067814
0.00067645
0.000669795
0.000675286
0.00196303
0.000684654
0.000680089
0.000679315
0.000728808
0.00123455
0.000678695
0.000673591
0.000660493
0.000671605
0.000678938
0.000689437
0.000677357
0.000679782
0.000673585
0.000670862
0.000667188
0.000647977
0.000674898
0.000679432
0.000679821
0.000675748
0.000668662
0.000728589
0.000738896
0.00152751
0.00193065
0.00194707
0.000684497
0.000685496
0.00068057
0.000680242
0.000680475
0.000705343
0.000942052
0.000676896
0.000662637
0.00069215
0.000686003
0.000682332
0.000686538
0.000692451
0.000684845
0.000673052
0.000676223
0.000674607
0.000666734
0.000657389
0.000678738
0.000652999
0.00068075
0.000680677
0.000677019
0.000670676
0.0020975
0.000826702
0.000989597
0.00126778
0.00197024
0.00201085
0.000670823
0.000687795
0.000689214
0.000682884
0.000682037
0.000681564
0.000677128
0.000938018
0.000656922
0.000664559
0.000692982
0.000689521
0.000694141
0.000692902
0.000681225
0.000689443
0.000676558
0.000673553
0.000671157
0.000659949
0.000677666
0.000682006
0.000681522
0.00068212
0.000678231
0.000671145
0.00175765
0.00102459
0.00194667
0.00131252
0.0020109
0.000803366
0.000690524
0.000688853
0.000683249
0.000682937
0.000682981
0.000680576
0.000666383
0.000818217
0.000662212
0.000694228
0.000690487
0.000696296
0.000694303
0.000695497
0.000696317
0.000680837
0.000679218
0.00067709
0.000671267
0.000655546
0.000679948
0.000674309
0.000683527
0.000683204
0.000678956
0.000673488
0.00118932
0.00227746
0.00121428
0.00194089
0.00199539
0.000752036
0.000685814
0.000686142
0.000684841
0.000682804
0.000684483
0.000669492
0.000860193
0.00066846
0.000688896
0.000689207
0.000697155
0.000692024
0.000697555
0.000700321
0.000691743
0.000685022
0.000679224
0.000676807
0.000673357
0.000662559
0.000682573
0.000676117
0.000684293
0.000684253
0.000681521
0.000673604
0.00116422
0.00214449
0.00198132
0.00117186
0.00202828
0.000746449
0.000685986
0.00068805
0.000685587
0.000671761
0.000858148
0.000650407
0.000689096
0.000691109
0.000692438
0.000692301
0.000695298
0.000700714
0.000698417
0.000702046
0.00068664
0.000682464
0.000679926
0.000674918
0.000659732
0.000685245
0.000672295
0.000685581
0.000685897
0.000682366
0.000683523
0.000676448
0.00109746
0.0021653
0.00120721
0.00196808
0.00201411
0.000728997
0.000688602
0.00068876
0.000679127
0.00085759
0.000654016
0.000692172
0.00069161
0.000694056
0.000695804
0.000695597
0.000695854
0.000701318
0.00070361
0.000696693
0.000693042
0.000682291
0.00067841
0.000666246
0.000683496
0.000688414
0.00067455
0.000687145
0.000685069
0.00067634
0.000685538
0.00218434
0.001047
0.00198884
0.00118668
0.00203999
0.000724789
0.000782843
0.000674755
0.000681233
0.000851151
0.000657707
0.000692816
0.000689729
0.000694588
0.000698662
0.00069919
0.00069712
0.000698764
0.000704659
0.000703081
0.000707616
0.000698337
0.000692275
0.000662486
0.000680367
0.000675031
0.000684973
0.000685325
0.000692598
0.00067394
0.000690215
0.00067952
0.000687189
0.00101639
0.00217046
0.00196065
0.00114791
0.00201502
0.000713159
0.000754227
0.000791965
0.000796536
0.000776138
0.000781047
0.000789428
0.00093396
0.000658726
0.000630799
0.000676578
0.000661313
0.000688114
0.000694371
0.000701233
0.000696719
0.000699048
0.000710218
0.000699522
0.000705478
0.000710252
0.000707384
0.000699009
0.000706458
0.000701032
0.000673301
0.000677396
0.000686285
0.000688453
0.000679284
0.000694708
0.000677205
0.00069102
0.000689165
0.000985452
0.00223395
0.00196194
0.000704489
0.000781649
0.000845627
0.000776562
0.000788894
0.000787184
0.000805403
0.000707786
0.000723057
0.000731182
0.000762507
0.000766352
0.000739405
0.000774973
0.000783626
0.00147066
0.000615525
0.000601813
0.000642292
0.000694822
0.000712885
0.000697959
0.000699966
0.000702226
0.000700738
0.000709239
0.000702444
0.000709218
0.000715881
0.00071441
0.000708488
0.000719718
0.000730565
0.000729091
0.000666377
0.000682994
0.000689838
0.000688668
0.000682667
0.000690363
0.000696156
0.000674243
0.000694434
0.000954635
0.00236959
0.000812917
0.000817778
0.000783554
0.000782797
0.000801207
0.000722358
0.000710015
0.000739573
0.00072885
0.00073474
0.000743961
0.000750938
0.00078008
0.000773021
0.000771031
0.00251373
0.0010829
0.000550203
0.000617128
0.00068517
0.000713753
0.000713381
0.000700474
0.00070414
0.00070036
0.000702779
0.00070872
0.00070347
0.000718359
0.000718383
0.000723985
0.000723503
0.000728303
0.000726314
0.000678459
0.00068522
0.000693822
0.000693995
0.000691274
0.00068244
0.00069246
0.000696407
0.000699831
0.000700013
0.000676441
0.000981801
0.000792404
0.000845205
0.000813598
0.000783767
0.000789003
0.000800714
0.000729181
0.000719264
0.000725845
0.00073684
0.000740067
0.000740451
0.000729982
0.000732529
0.000734725
0.000755152
0.000775065
0.000770398
0.000767089
0.00240614
0.00188736
0.000629234
0.000630125
0.000682739
0.000713236
0.00071153
0.000699832
0.000703761
0.000705579
0.000704536
0.000706444
0.000716621
0.000717352
0.00072241
0.000722517
0.000722847
0.000726498
0.000672548
0.000695165
0.000691413
0.000696601
0.000697503
0.000685975
0.000685735
0.000693737
0.000697295
0.000689702
0.00150551
0.00177869
0.000703747
0.000651935
0.000816201
0.0008158
0.000834058
0.000843411
0.000818474
0.000779392
0.000787528
0.000804596
0.000732342
0.000729804
0.000734657
0.00074018
0.000749291
0.000738791
0.000754095
0.000735516
0.000741201
0.000764273
0.000759209
0.000770821
0.000774489
0.00278685
0.00217912
0.0023702
0.000591841
0.000604178
0.000676085
0.000707724
0.000710786
0.000703361
0.000708562
0.000705659
0.000706809
0.000712341
0.000715506
0.000717361
0.000720665
0.000723511
0.000728441
0.000729593
0.000686518
0.000689664
0.000704265
0.000697061
0.000696095
0.000696621
0.000699745
0.000705148
0.000689769
0.000692916
0.000650512
0.000609079
0.000833277
0.000811154
0.000822821
0.000772177
0.000753121
0.000853262
0.000810039
0.000783689
0.000786126
0.000799478
0.000735317
0.000733734
0.000732548
0.000762816
0.000744741
0.000749484
0.000739535
0.000741817
0.000760119
0.000755396
0.000767055
0.000773012
0.000721553
0.00284944
0.00248757
0.00250267
0.000636741
0.000600545
0.000674855
0.000708724
0.000711171
0.000707907
0.000700718
0.000709741
0.000713253
0.000715882
0.000718168
0.000720999
0.000724377
0.000726663
0.000730681
0.000732653
0.000677462
0.000699523
0.00070135
0.00070218
0.000701214
0.000703284
0.000702608
0.000701552
0.000690969
0.000698248
0.00069853
0.000682176
0.000833755
0.000762114
0.000775929
0.000825512
0.000768338
0.000858778
0.000806156
0.000785537
0.000791953
0.000800142
0.000808147
0.000738785
0.000736164
0.000736587
0.000732746
0.000742885
0.000752132
0.000748784
0.000759373
0.000764204
0.00077204
0.000772974
0.000699657
0.00290535
0.00258009
0.00264781
0.000611337
0.000589832
0.000668158
0.000714169
0.000709995
0.000712504
0.000707571
0.000714458
0.000718744
0.000723482
0.000719201
0.000724661
0.00072971
0.000729241
0.000734193
0.000737179
0.000690586
0.000694301
0.00070938
0.000707812
0.000704253
0.000705806
0.000709926
0.000693736
0.000695716
0.000699231
0.000654972
0.00082534
0.000807001
0.000754352
0.000745641
0.000768303
0.000808853
0.000760515
0.000818821
0.00084857
0.000783231
0.000794061
0.00079613
0.000809212
0.000741998
0.000737883
0.0007391
0.000738969
0.000738733
0.00074731
0.000747499
0.000745284
0.000756144
0.000765072
0.000775427
0.00077977
0.000796905
0.00293706
0.0027719
0.0026718
0.00064107
0.000582066
0.000682455
0.000715729
0.000712703
0.000705201
0.000715773
0.000719129
0.000722532
0.000720531
0.000726679
0.000731713
0.000734373
0.000735653
0.000738368
0.000685477
0.000706242
0.000708059
0.000694949
0.000708175
0.000706523
0.000708097
0.000704474
0.000699432
0.000700351
0.000649967
0.000845329
0.000821365
0.000823159
0.000792267
0.000736472
0.000737744
0.000751785
0.000773107
0.000801711
0.000773511
0.000735648
0.000829516
0.000837311
0.000849638
0.000782745
0.000796472
0.000798009
0.000798372
0.000743635
0.000740384
0.000737116
0.000738384
0.000747728
0.000753438
0.000746811
0.000783374
0.000761238
0.000761566
0.000773242
0.000720961
0.00298116
0.00287785
0.00282537
0.000682768
0.000615616
0.000595017
0.000721165
0.000712217
0.000722641
0.000718703
0.000725862
0.000726006
0.00072309
0.000732463
0.000734355
0.000735737
0.000700273
0.000704206
0.000713071
0.000697669
0.000700478
0.000712302
0.000707509
0.000709267
0.000715088
0.000700189
0.00064529
0.000694303
0.000705103
0.00082477
0.000810524
0.000811036
0.00078288
0.000733993
0.00075163
0.000771076
0.000765716
0.000792585
0.000723135
0.00072049
0.000719677
0.000711725
0.000703352
0.000833502
0.000814181
0.000830032
0.000815876
0.000786427
0.000785195
0.000787096
0.000784132
0.000745601
0.000741333
0.000743365
0.000755038
0.00075122
0.000749792
0.00074309
0.000772467
0.000772577
0.000765881
0.000769388
0.00086206
0.00308059
0.00301808
0.00266141
0.00060111
0.000591189
0.000716508
0.000668343
0.000733346
0.000721367
0.000731006
0.000734063
0.000737603
0.000699794
0.000716519
0.000699382
0.000702578
0.000708991
0.000713351
0.000710727
0.000712195
0.000647448
0.00070036
0.000704605
0.000705744
0.000704582
0.000810358
0.000803001
0.000801587
0.000773699
0.000731446
0.000758601
0.000788226
0.000758369
0.000739198
0.000722787
0.000722326
0.000714225
0.000711871
0.000701136
0.000712633
0.000819152
0.000851431
0.000813152
0.000820597
0.000772633
0.000775945
0.000779164
0.000764174
0.000744146
0.000743613
0.000752779
0.000747537
0.000753148
0.000748822
0.000747914
0.000773077
0.000774199
0.000764009
0.0006007
0.00301792
0.00303545
0.00271914
0.000582567
0.000578801
0.000739501
0.00103442
0.000729036
0.000734111
0.000737355
0.000726354
0.000701944
0.000705367
0.000719139
0.000713343
0.000717107
0.000710644
0.000668355
0.000709548
0.000715242
0.000722546
0.000798206
0.000800707
0.000795473
0.000791689
0.000765053
0.00076085
0.000779182
0.000751578
0.000743675
0.000753169
0.000736905
0.000726932
0.000734466
0.000729807
0.00072856
0.000729323
0.0007805
0.00080262
0.000785539
0.000810352
0.000764549
0.00076335
0.000772526
0.000767059
0.000786337
0.0007447
0.000759009
0.000754338
0.000753463
0.000751403
0.000747543
0.000761087
0.000763733
0.000762832
0.000652068
0.00316609
0.0031148
0.0030881
0.00052165
0.000730981
0.000624338
0.00073728
0.000739599
0.000704122
0.0007068
0.000713763
0.000716704
0.000718306
0.000715132
0.000681503
0.000709576
0.000731107
0.000706684
0.000796965
0.000794569
0.000788689
0.000778046
0.000756886
0.000774881
0.000746095
0.000767532
0.000764999
0.00075651
0.000736836
0.000740971
0.000751557
0.000743503
0.000747355
0.000811957
0.000786015
0.000803335
0.000757013
0.000755443
0.000762665
0.000778092
0.000778296
0.000754648
0.000751563
0.000747881
0.000756304
0.00075396
0.000752845
0.000541538
0.00315389
0.00451639
0.000983107
0.0007472
0.00062438
0.00074292
0.00071047
0.000723583
0.000717952
0.000724027
0.000714952
0.000687682
0.000709299
0.000711613
0.000785508
0.000782357
0.000777861
0.000770986
0.000751427
0.000740671
0.000736379
0.000731843
0.000728246
0.000711949
0.000714869
0.000724374
0.000717777
0.00072109
0.000778717
0.000794244
0.000788784
0.00075298
0.000759067
0.000774433
0.000752273
0.000774513
0.000752663
0.000748296
0.000751739
0.000750803
0.000752073
0.000756369
0.00543045
0.00515305
0.00141669
0.000765327
0.000573219
0.000718993
0.000721464
0.000716395
0.000720209
0.000692862
0.000715807
0.000728339
0.00078169
0.000783999
0.000769992
0.000762461
0.000745371
0.000741587
0.000736439
0.000733802
0.000716941
0.000721389
0.000729071
0.000722717
0.0007273
0.000768414
0.000776975
0.000780054
0.000761135
0.000763823
0.000753084
0.000769159
0.000747997
0.000747102
0.00074655
0.000749367
0.00112681
0.000979213
0.00628427
0.00682738
0.00239543
0.00122803
0.000722932
0.000720011
0.000727588
0.000725508
0.000632261
0.000724663
0.0007265
0.000766126
0.000767333
0.000764502
0.000760206
0.000752361
0.000751606
0.000743994
0.000733394
0.000730727
0.000744563
0.000738681
0.000737047
0.000768885
0.000764093
0.000769744
0.000759114
0.000750433
0.000753619
0.000760966
0.000871401
0.000966665
0.00155535
0.00832934
0.00824039
0.00135776
0.0010347
0.00190871
0.000724319
0.000722462
0.000726674
0.000734785
0.000564665
0.000728245
0.000724396
0.000769562
0.000767397
0.000759356
0.000754433
0.000749872
0.000746371
0.000731888
0.00073398
0.000742774
0.000739921
0.00073696
0.000766272
0.000765846
0.000757014
0.000754801
0.00075496
0.000758227
0.000575847
0.00075457
0.000793171
0.0024554
0.00119623
0.000836326
0.00188698
0.00179721
0.000728774
0.00072507
0.000749352
0.000536782
0.000730771
0.000726194
0.000755614
0.000757067
0.000754632
0.000749545
0.000747144
0.000729115
0.000736721
0.000742529
0.000741542
0.000736525
0.000765151
0.000762563
0.000749423
0.000763756
0.000750748
0.000752231
0.000473381
0.000481674
0.000625452
0.000612667
0.000561964
0.00184244
0.00099637
0.000638717
0.00161921
0.00166802
0.000729452
0.000736927
0.000767659
0.00073245
0.000731863
0.00073143
0.0007561
0.000749956
0.000748684
0.000743727
0.000737028
0.000732882
0.000743406
0.000739524
0.000737735
0.000760134
0.000748739
0.000759778
0.000747319
0.000747858
0.000374483
0.000387144
0.000487782
0.000432025
0.00163665
0.000406901
0.00191216
0.00153346
0.000776402
0.000447335
0.00133287
0.00152391
0.0007256
0.000745305
0.000731103
0.000733568
0.000735274
0.000750787
0.000749781
0.000749194
0.000745043
0.000737954
0.000737593
0.000743941
0.00074086
0.000739958
0.000755116
0.000745849
0.000742816
0.00138435
0.000287908
0.000294406
0.000346595
0.000258386
0.00141418
0.00028057
0.00197255
0.00159875
0.0012211
0.000550717
0.000267533
0.00103025
0.00136442
0.000739038
0.000729008
0.000735005
0.000731145
0.000740011
0.000742338
0.00074543
0.000743547
0.000736318
0.000737034
0.000743287
0.000740249
0.000740378
0.00139581
0.00115203
0.000214217
0.000204345
0.000207654
0.000103095
0.00116654
0.000183929
0.00202831
0.00164679
0.00128527
0.000922182
0.000332092
0.000108729
0.000728001
0.00118285
0.00163211
0.00113306
0.000938238
0.000150873
0.000119922
8.13993e-05
7.24889e-06
0.000908592
0.000109699
0.00223946
0.00169693
0.00132341
0.000980189
0.000643983
0.00013862
8.72123e-06
0.000443185
0.00097789
0.00188076
0.00130923
0.000914178
0.000734066
9.26995e-05
4.46581e-05
4.63567e-06
0.000653272
5.76414e-05
0.00125548
0.001947
0.00136936
0.00100909
0.000691575
0.000393015
1.4547e-05
0.000197846
0.00249215
0.00145364
0.00102814
0.000721047
0.000534439
3.76962e-05
1.52096e-06
0.000408134
3.12226e-05
0.00113315
0.000963801
0.00160761
0.00105066
0.000712212
0.000426915
0.000178162
3.37971e-05
0.00404954
0.00185548
0.00110057
0.000790111
0.00053766
0.000341806
1.08873e-06
0.000186948
0.00141729
0.00094736
0.00071674
0.00124649
0.00074656
0.000440596
0.000196626
2.72859e-05
0.00412068
0.00340677
0.00129399
0.000813083
0.000584955
0.000356973
0.00016251
2.63102e-05
0.00183978
0.0012107
0.000772487
0.000507389
0.000886759
0.000465241
0.000204839
3.21014e-05
0.00546751
0.003336
0.00264555
0.000831189
0.000579149
0.00039814
0.000181865
2.42992e-05
0.00217778
0.00146716
0.00100061
0.00060481
0.000331501
0.000550661
0.000218697
3.50762e-05
0.00451353
0.00469121
0.0025593
0.00182854
0.000482817
0.000396951
0.000221612
3.482e-05
0.00236272
0.00172918
0.0011209
0.00078531
0.000441638
0.000188029
0.000260352
3.95305e-05
0.00400817
0.00376501
0.00382581
0.00183561
0.00107073
0.000252618
0.000248263
6.20183e-05
0.00238555
0.00187165
0.00131701
0.000808108
0.000560777
0.000285421
7.84886e-05
5.33437e-05
0.00381987
0.00337733
0.00302161
0.00292994
0.00121965
0.000476683
0.000133458
9.56429e-05
0.00222803
0.00189041
0.00142248
0.000947987
0.000533792
0.000326953
0.000130715
1.52246e-05
0.0037706
0.00320528
0.0027118
0.0022929
0.00205141
0.000699954
0.000144714
9.40128e-05
0.00186879
0.00177234
0.00143751
0.00102199
0.000626263
0.000301681
0.00012439
1.38419e-05
0.0039275
0.00316321
0.0025707
0.00205838
0.00162419
0.0012231
0.00030347
4.00586e-05
0.00142726
0.0014903
0.00135218
0.00103349
0.000674084
0.000354744
0.000117235
9.38753e-06
0.00443653
0.00327227
0.00253538
0.0019527
0.00144417
0.00104261
0.000417375
9.06119e-05
0.00109242
0.00121606
0.00113908
0.000975074
0.000682254
0.000381304
0.00013964
9.39382e-06
0.00518655
0.00375469
0.00260497
0.0019246
0.00137304
0.00089192
0.000556564
3.59402e-05
0.00125122
0.000913526
0.00100252
0.000821992
0.000645286
0.000386379
0.000150519
1.31721e-05
0.0042776
0.00434135
0.00309298
0.00196143
0.00135192
0.000853221
0.000434095
0.000182471
0.00220899
0.000961772
0.000746224
0.000784762
0.000543524
0.00036631
0.000152859
1.51726e-05
0.0041779
0.00355098
0.00333868
0.00245329
0.00136492
0.000838356
0.000419383
0.000123262
0.00202488
0.00191182
0.000713012
0.000585213
0.000558084
0.000307655
0.000144947
1.56556e-05
0.00274425
0.00365343
0.00279747
0.00226138
0.00185572
0.000838484
0.000410162
0.000120333
0.00194537
0.00168965
0.00157268
0.000503546
0.000427465
0.000324388
0.000120233
1.4248e-05
0.00195291
0.0021551
0.00306811
0.00206
0.00129457
0.00126517
0.000406596
0.000115645
0.00187623
0.00161794
0.00135865
0.00121491
0.000328596
0.000275845
0.000123401
1.00563e-05
0.00168382
0.00153591
0.00163182
0.00243954
0.0013909
0.000593976
0.000605515
0.000112952
0.00181157
0.00156265
0.00129532
0.00103897
0.000861629
0.00018627
0.000125359
9.38797e-06
0.00141403
0.00135452
0.00118999
0.00118068
0.00181532
0.000851402
0.000207724
0.000129789
0.00191329
0.00186852
0.00150152
0.00125161
0.000984467
0.000736051
0.000533212
7.70926e-05
1.26006e-05
0.00139085
0.00115205
0.00106744
0.000904764
0.000810451
0.0012263
0.000467905
5.0487e-05
0.00137002
0.00179337
0.00159697
0.00119074
0.000951515
0.000692417
0.000457026
0.000249952
1.39559e-05
0.00161562
0.0011568
0.000931492
0.000825056
0.00065899
0.00050907
0.000703138
0.000229327
0.000565646
0.00120784
0.00119358
0.00165774
0.0013104
0.000896206
0.00066929
0.000426027
0.000213203
4.94562e-05
0.00140814
0.000941698
0.000734329
0.000612822
0.000453084
0.000283665
0.000262771
0.000407955
0.000501498
0.00116318
0.00101651
0.000985546
0.00150879
0.00100957
0.000624278
0.00041139
0.000196408
3.72615e-05
0.000630549
0.0009409
0.00116933
0.000736689
0.000545852
0.000417525
0.00027622
0.00012162
0.000279814
0.000399688
0.000994821
0.000819425
0.000763007
0.00134488
0.00071066
0.000380254
0.000188089
3.21272e-05
0.000523498
0.000815884
0.000914678
0.000536533
0.000361875
0.000232613
9.74527e-05
0.000183309
0.000308853
0.000814218
0.000623482
0.000537608
0.00116069
0.000430381
0.000171699
2.93579e-05
0.000418995
0.000677301
0.000659929
0.00034326
0.00018433
6.58319e-05
0.000109696
0.000231122
0.000627607
0.000434776
0.000321855
0.000953847
0.000189815
2.53548e-05
0.000317724
0.00052877
0.000413499
0.000163471
3.61143e-05
5.94196e-05
0.000163942
0.000441702
0.000258534
0.000132436
3.08787e-05
0.000220529
0.000376418
0.000190301
2.47079e-05
3.22353e-05
0.000101546
0.000263595
0.000103695
1.3016e-05
0.000130275
0.000226763
2.73924e-05
4.18689e-05
0.000105297
7.69162e-06
4.96188e-05
9.0521e-05
1.35485e-06
7.52784e-06
1.97004e-06
5.85655e-06
0.000739585
0.000739073
0.000740664
0.000740905
0.000741823
0.000741001
0.000741165
0.000742188
0.00074003
0.000738886
0.00074017
0.000740612
0.000741434
0.000741393
0.000742057
0.000744862
0.000758744
0.000763762
0.000768597
0.00077792
0.000782036
0.000744
0.000747465
0.000741892
0.000743742
0.000742501
0.000740707
0.000742166
0.000743582
0.000741022
0.000794315
0.00079862
0.000740027
0.000740091
0.000741003
0.000741211
0.000742338
0.000742145
0.000745561
0.000748115
0.00075127
0.000753318
0.000756762
0.000764362
0.000770612
0.000776868
0.000789471
0.000794453
0.000819199
0.000820971
0.000750109
0.000753186
0.000755788
0.000759525
0.000764091
0.000771491
0.000780658
0.000743744
0.000747904
0.000741646
0.000742639
0.000742648
0.000740891
0.000743438
0.000744609
0.00074238
0.000778205
0.000786171
0.000840061
0.000848964
0.000808719
0.000808725
0.000833284
0.000739891
0.000740636
0.000741259
0.000742473
0.000743916
0.000745478
0.000749454
0.000751
0.000757979
0.000759896
0.000764731
0.000770871
0.000784036
0.000793797
0.000804637
0.000812479
0.000830504
0.000834203
0.000859525
0.00086876
0.000905173
0.00089879
0.000921844
0.000747039
0.000751969
0.000753492
0.000758204
0.000763785
0.000743761
0.000746849
0.000741638
0.000741947
0.000743591
0.000741545
0.000744497
0.000744468
0.00074474
0.000763701
0.000780123
0.000781023
0.000803421
0.000811449
0.00090527
0.000853217
0.000891964
0.000835589
0.00085039
0.000742857
0.000743139
0.00074537
0.000746151
0.000750048
0.000750588
0.000757422
0.0007561
0.000766304
0.000762306
0.000776032
0.00077926
0.000817352
0.000811083
0.000825577
0.000843081
0.000855029
0.000865549
0.000885152
0.000895729
0.000949265
0.00095088
0.000998485
0.00101762
0.00098159
0.00102421
0.00103041
0.00122909
0.000746522
0.000751768
0.00075309
0.000756963
0.000745939
0.000745379
0.000743833
0.000746528
0.000742157
0.000741969
0.000744432
0.000743751
0.000742
0.000746274
0.000745147
0.000760898
0.000772291
0.000780748
0.00152597
0.00135102
0.00149854
0.000800601
0.000803238
0.000830851
0.000844745
0.000906565
0.000918962
0.00106625
0.000971195
0.000861566
0.000909943
0.000750628
0.000748296
0.000754482
0.000751073
0.00075954
0.000754807
0.000764496
0.000760991
0.000764628
0.000770234
0.000781095
0.000783435
0.000793696
0.000818825
0.000848492
0.000824108
0.000850665
0.000970778
0.000969383
0.000963232
0.00103002
0.00203103
0.00209388
0.00175551
0.00117851
0.00117907
0.00129727
0.00124742
0.00124958
0.00137592
0.0013877
0.00186904
0.00156472
0.0035524
0.00332323
0.00339985
0.00210668
0.00299655
0.00280589
0.00246312
0.00212335
0.000746581
0.000750848
0.000750458
0.000755448
0.000744147
0.000743567
0.000743951
0.000745657
0.000742594
0.000742566
0.00074217
0.000746426
0.00074544
0.000744281
0.000743669
0.000760335
0.000774092
0.000803129
0.000781888
0.000798251
0.00366338
0.00367501
0.00284452
0.00272596
0.00214696
0.00111871
0.00135782
0.00154705
0.00192708
0.000838079
0.000839682
0.000848494
0.000847694
0.000892636
0.000903265
0.000991681
0.000976973
0.0010592
0.00363329
0.00342526
0.00126145
0.00328238
0.00288489
0.0026367
0.00148383
0.00179058
0.00189226
0.00263111
0.000779734
0.000767145
0.000783508
0.000769957
0.000786094
0.000775191
0.000789472
0.000789905
0.000797898
0.000795945
0.000810805
0.000810897
0.00085184
0.000875075
0.000929765
0.000902127
0.00113471
0.00133283
0.00110008
0.00173817
0.00142711
0.00132745
0.00162939
0.0014605
0.00143745
0.00252489
0.00304873
0.00350304
0.00304486
0.00268094
0.00228333
0.0018046
0.00167061
0.00184443
0.0020059
0.0025997
0.00190711
0.00204229
0.00348506
0.0035503
0.00361273
0.00369962
0.00357023
0.00340367
0.00329265
0.00330283
0.00138573
0.00136687
0.00284743
0.00297163
0.00153367
0.00160431
0.00191161
0.0025462
0.0020729
0.0024095
0.000746577
0.000749733
0.000749111
0.000758567
0.00074321
0.000742992
0.000742975
0.00074389
0.000745189
0.000746442
0.000745199
0.000744522
0.000743518
0.00074339
0.000743108
0.000758609
0.00077435
0.000775695
0.000795185
0.000799462
0.000827096
0.000794081
0.00349772
0.00374824
0.00338277
0.00371065
0.00365124
0.0027409
0.00332387
0.00262437
0.00215592
0.000838712
0.00191787
0.00118121
0.00173587
0.00135093
0.000886743
0.000875005
0.000898745
0.000890639
0.000923553
0.000912264
0.00103439
0.00102698
0.00117889
0.0036975
0.00339346
0.00375801
0.00113345
0.0012053
0.000952168
0.00323917
0.00280169
0.00265976
0.00180242
0.00114186
0.00157867
0.000620912
0.000825852
0.00386821
0.00129089
0.000684282
0.00084164
0.000776675
0.000875003
0.000863305
0.00090216
0.000942215
0.000878275
0.000868768
0.000943568
0.000951664
0.00114209
0.00121604
0.00169198
0.00132969
0.00174646
0.0013477
0.00131163
0.00176895
0.00148365
0.00160932
0.00186899
0.00223726
0.00184426
0.00156205
0.00203054
0.0018097
0.00215227
0.00203259
0.00274136
0.00314679
0.00354106
0.00335265
0.00294847
0.00246913
0.00247798
0.00227086
0.00280527
0.00231838
0.00251937
0.00360725
0.0034988
0.00368517
0.00355595
0.00362719
0.00333173
0.00339075
0.00287817
0.00312548
0.00303478
0.00146091
0.00162573
0.00247877
0.00263912
0.00227137
0.0021556
0.00196167
0.000757546
0.000746431
0.000748857
0.000748615
0.000743111
0.000743739
0.000744835
0.000759335
0.000745965
0.000744883
0.000744501
0.000743737
0.000743853
0.000743354
0.00074383
0.000743902
0.000746841
0.000745109
0.000744487
0.000748489
0.000748047
0.000750372
0.000772726
0.000773907
0.000776334
0.000785647
0.000842018
0.000813666
0.00080988
0.000797876
0.00381321
0.00380635
0.00354042
0.00244868
0.00335262
0.00284024
0.000868735
0.000912615
0.000937133
0.00241599
0.00142164
0.00225861
0.00154193
0.000946946
0.000927218
0.00100527
0.00098811
0.00115923
0.00116858
0.00134222
0.00376746
0.00378223
0.0035745
0.00387912
0.00392634
0.00339636
0.00083972
0.000904318
0.000674229
0.00294115
0.00271345
0.00207974
0.00150911
0.000864589
0.00911246
0.00820948
0.00217173
0.000903379
0.0074271
0.00528211
0.00139148
0.00090738
0.0011487
0.000909497
0.00107657
0.000992491
0.00112916
0.00127368
0.00124984
0.00177936
0.00180766
0.00150832
0.00223589
0.00173245
0.00194831
0.00250701
0.0024721
0.00270178
0.00222155
0.00239228
0.00258329
0.00287058
0.00222854
0.00242732
0.00264725
0.00234665
0.00273291
0.00243547
0.00348785
0.00319299
0.00339264
0.00330548
0.00307369
0.00305339
0.00318681
0.00305955
0.00297689
0.00365278
0.00349425
0.00341762
0.00352646
0.00349082
0.00302818
0.00328122
0.00257308
0.00277336
0.0021537
0.00228752
0.000756056
0.000753083
0.000749747
0.000756804
0.000744116
0.000746019
0.000747537
0.000754932
0.000761385
0.000745235
0.00074422
0.000744301
0.000743608
0.000744016
0.000743645
0.000744609
0.000744776
0.000748055
0.000742029
0.000747127
0.000748466
0.000751015
0.000752571
0.000770931
0.000774611
0.000785365
0.000794572
0.000862869
0.000844692
0.000841506
0.000811352
0.00317626
0.00330894
0.00384382
0.00092482
0.000944487
0.000944401
0.00103027
0.000984594
0.00233767
0.00297744
0.00165253
0.00209703
0.00138314
0.00128912
0.00169017
0.00168286
0.00149857
0.0037028
0.00391722
0.00394159
0.00374379
0.00374769
0.00351852
0.0030334
0.00276578
0.000615823
0.000704587
0.00239465
0.00188429
0.00145988
0.000788091
0.00915431
0.0103082
0.00382707
0.00830535
0.0101741
0.00984344
0.00550965
0.00340426
0.00942701
0.0089558
0.00456675
0.00252675
0.00352398
0.00204259
0.00293841
0.00185372
0.00252872
0.0025221
0.00203703
0.00300759
0.00261366
0.00261797
0.0025205
0.00265106
0.00315505
0.0030692
0.0031157
0.00334462
0.00306528
0.00279479
0.00323974
0.00342004
0.00288865
0.00317135
0.00338445
0.00308246
0.00338495
0.0036106
0.00345802
0.00359881
0.00346796
0.00357004
0.00344419
0.00345035
0.0034752
0.00355074
0.00354212
0.0031546
0.00337505
0.00269571
0.00284747
0.00216576
0.00232799
0.000759238
0.00075684
0.000756165
0.000753959
0.000749569
0.000749966
0.000753629
0.000759531
0.000765254
0.000746978
0.000741816
0.000746835
0.000742278
0.000748294
0.000744485
0.000751183
0.000746277
0.000747608
0.000749203
0.000750654
0.000752759
0.000754039
0.000775711
0.000776821
0.000786734
0.000817907
0.000801872
0.000780716
0.000912143
0.000872249
0.000876446
0.000846166
0.000953798
0.00383031
0.00337858
0.0009793
0.000931869
0.00121273
0.0011145
0.00182183
0.00214965
0.00221112
0.00210891
0.00305123
0.00257944
0.00228915
0.00248206
0.00234447
0.00394867
0.00414318
0.00377817
0.00396632
0.00323927
0.0029368
0.00237641
0.00219285
0.00189131
0.00179671
0.000608844
0.00134832
0.0076755
0.00987823
0.00229529
0.00576193
0.00967017
0.0106804
0.00857511
0.00738785
0.01071
0.0102589
0.00694942
0.00582206
0.00571921
0.00380079
0.00439589
0.00351588
0.0031642
0.00331396
0.00416155
0.00345198
0.00393306
0.00334497
0.00360631
0.00363548
0.00388291
0.00378891
0.00375835
0.00362695
0.00356719
0.00335268
0.00366431
0.00381389
0.00345244
0.00361656
0.00372638
0.00359405
0.00370646
0.00358718
0.00354861
0.00355164
0.00364199
0.00363172
0.00361911
0.00326298
0.00342258
0.00276574
0.00293812
0.0022234
0.00239943
0.000788388
0.000667091
0.000759282
0.000760242
0.000759202
0.00075762
0.000756803
0.000754809
0.000756652
0.000757992
0.000763636
0.000763793
0.000780308
0.000747351
0.000746568
0.000748215
0.000748291
0.000751838
0.000749116
0.00074998
0.000751788
0.000753125
0.000753989
0.000755737
0.000775625
0.000799543
0.000803319
0.000849723
0.000792746
0.000800327
0.000951765
0.000894952
0.000905489
0.000848919
0.00101125
0.00115373
0.000906447
0.0038978
0.00373777
0.00188562
0.0016757
0.00240281
0.00352168
0.00316791
0.00285688
0.00306635
0.0034171
0.00363457
0.00305406
0.00384624
0.00446582
0.00305266
0.00354154
0.00254829
0.00225137
0.00181518
0.00166876
0.000597544
0.000906378
0.00597493
0.00920845
0.00156029
0.00343713