/*--------------------------------*- C++ -*----------------------------------*\
  =========                 |
  \\      /  F ield         | OpenFOAM: The Open Source CFD Toolbox
   \\    /   O peration     | Website:  https://openfoam.org
    \\  /    A nd           | Version:  8
     \\/     M anipulation  |
\*---------------------------------------------------------------------------*/
FoamFile
{
    version     2.0;
    format      ascii;
    class       volVectorField;
    location    "17000";
    object      U;
}
// * * * * * * * * * * * * * * * * * * * * * * * * * * * * * * * * * * * * * //

dimensions      [0 1 -1 0 0 0 0];

internalField   nonuniform List<vector> 
4109
(
(10.1197 0.000522746 0)
(10.1223 0.000552614 3.86697e-21)
(10.124 0.00250462 0)
(10.1218 -0.000216851 -8.33211e-21)
(10.1241 0.00150625 4.00776e-22)
(10.1269 0.00237181 6.67398e-23)
(10.1278 0.0025138 -2.46106e-22)
(10.1334 0.00401688 0)
(10.1288 0.00239036 0)
(10.123 0.00038773 -2.86637e-21)
(10.125 0.00129233 3.48473e-21)
(10.1338 0.00314519 1.53526e-21)
(10.1364 0.00797829 2.24817e-21)
(10.1368 0.00429694 -1.09019e-22)
(10.1346 0.00331306 2.37403e-21)
(10.13 0.00222353 -8.93657e-22)
(10.1243 0.000617713 5.51026e-22)
(10.1267 0.00160397 6.44804e-23)
(10.1356 0.00323644 0)
(10.1404 0.00369853 -3.2323e-21)
(10.159 0.00816494 1.84913e-21)
(10.1427 0.00842505 -5.07636e-21)
(10.1466 0.00601311 -5.73131e-22)
(10.1312 0.00229321 -2.23732e-21)
(10.1285 0.00175633 9.11947e-21)
(10.1256 0.000843552 3.08535e-21)
(10.1329 -0.00211916 0)
(10.1362 -0.00228131 9.07011e-22)
(10.1404 -0.00217106 -6.57862e-23)
(10.136 0.00326017 0)
(10.1419 0.00323792 0)
(10.1465 0.00464757 3.92043e-21)
(10.2209 -2.10785e-05 -1.01539e-21)
(10.1507 0.00705249 -7.1074e-21)
(10.1489 0.00602146 0)
(10.132 0.0023396 -1.60419e-22)
(10.1279 0.00153833 -9.05928e-21)
(10.1266 0.00075442 -5.02524e-21)
(10.1328 -0.00216737 -1.45012e-21)
(10.1249 -0.00161537 0)
(10.1421 -0.00303732 -1.37542e-22)
(10.1392 -0.00333336 4.96492e-22)
(10.1418 -0.00893138 -1.48172e-22)
(10.1365 0.00334366 -2.26546e-21)
(10.1421 0.00323784 0)
(9.48072 0.0260908 7.08002e-22)
(10.135 -0.000371309 3.81284e-22)
(10.1489 0.00466794 -1.40893e-22)
(10.1496 0.00403289 6.76759e-22)
(10.2167 -0.00105417 4.63001e-21)
(10.1535 0.0053406 4.26141e-21)
(10.1308 0.00203029 -1.32242e-22)
(10.1291 0.00184975 -8.79439e-21)
(10.1281 0.00102586 1.97833e-21)
(10.1329 -0.00250118 -9.47577e-22)
(10.1266 -0.00186327 0)
(10.119 -0.000356053 0)
(10.1416 -0.00527489 1.1731e-22)
(10.143 -0.00417236 1.5779e-22)
(10.1389 -0.00347558 0)
(10.2401 -0.00276607 -1.44647e-22)
(8.88597 0.0142801 0)
(10.1362 0.00330497 -7.73483e-21)
(10.1427 0.00324015 0)
(10.1487 0.00439787 6.05705e-22)
(10.2461 -0.000862433 -3.86867e-22)
(9.74635 0.0280904 1.5827e-20)
(10.15 0.00375558 0)
(10.1508 0.00631905 -9.57537e-22)
(10.2301 -0.000416992 -5.8405e-22)
(10.1298 0.00127566 2.6484e-21)
(10.1309 0.00226667 5.86799e-21)
(10.1355 0.00387922 0)
(10.1318 0.00141114 1.19576e-20)
(10.1331 0.00226673 -1.78466e-20)
(10.1339 -0.00284548 9.55702e-22)
(10.1284 -0.00195305 0)
(10.1266 -0.00176263 0)
(10.1205 -0.000465243 0)
(10.2207 0.0067595 1.69729e-22)
(10.1468 -0.00464595 8.11646e-22)
(10.1416 -0.00486192 -7.41458e-22)
(10.1451 -0.00360806 8.86905e-23)
(10.1395 -0.00389629 0)
(10.3543 0.0186116 1.20945e-21)
(10.258 4.72682e-06 0)
(9.37363 -0.042939 0)
(9.21595 0.031057 -3.08715e-20)
(8.84225 0.0202401 -1.05275e-21)
(10.1348 0.00273328 3.02163e-21)
(10.1371 0.0032911 7.73798e-21)
(10.1432 0.0033369 0)
(10.1492 0.0044969 -3.17641e-22)
(10.1506 0.00351049 -1.9788e-22)
(10.2875 -0.00495909 0)
(9.9927 0.0122726 0)
(10.1483 0.00594481 0)
(10.2206 0.000547277 3.09596e-22)
(10.1371 0.00394393 6.29489e-22)
(10.1342 0.00322053 -1.17917e-20)
(10.1318 0.00248842 1.34289e-20)
(10.1365 0.00384096 8.47087e-21)
(10.1383 0.00452175 5.39621e-21)
(10.1346 0.00274014 6.28271e-21)
(10.1341 0.00122859 2.45346e-21)
(10.1347 -0.00332975 3.9963e-22)
(10.1305 -0.00263518 3.53647e-22)
(10.1263 -0.00154133 0)
(10.1212 -0.000621827 2.85539e-21)
(10.2091 0.00182211 1.57238e-22)
(10.3295 0.00916209 0)
(10.1451 -0.00537136 -3.22457e-22)
(10.1455 -0.00428693 -3.18748e-23)
(10.1454 -0.00403095 0)
(10.1399 -0.00420757 0)
(9.01873 -0.0380256 -1.4372e-20)
(10.1706 -0.0132135 -1.07926e-21)
(9.90986 -0.0362104 1.72624e-20)
(9.56751 0.0395107 -7.21433e-21)
(9.04841 0.0114386 1.10079e-20)
(8.75675 -0.00320072 8.6241e-21)
(10.2989 0.00205968 1.37786e-22)
(10.1362 0.0033088 -1.38094e-20)
(10.1394 0.00391013 -2.38919e-21)
(10.1441 0.00368211 -7.63903e-22)
(10.1495 0.0047909 0)
(10.1514 0.0038693 6.31284e-22)
(10.1472 0.00611225 -2.01475e-21)
(10.0767 0.00439785 3.38719e-21)
(10.3091 -0.00162264 0)
(10.2078 0.000909745 2.35589e-22)
(10.1403 0.00521585 6.98383e-21)
(10.1373 0.00405896 -4.38647e-21)
(10.1387 0.00472608 -8.28541e-21)
(10.1409 0.0058263 5.132e-22)
(10.1372 0.00155827 0)
(10.1375 0.00379602 -4.98132e-21)
(10.1355 -0.00386349 -7.81632e-22)
(10.1307 -0.00281473 0)
(10.1268 -0.00171291 1.07634e-21)
(10.1225 -0.000758074 -2.85506e-21)
(10.2107 -0.00126623 -2.45444e-23)
(10.3261 -0.0030633 0)
(10.1429 -0.00663434 0)
(10.1466 -0.00443946 -3.04235e-22)
(10.1457 -0.00420819 1.51932e-22)
(10.1404 -0.00469728 0)
(9.13901 -0.0346382 -8.23364e-21)
(9.85908 -0.0391249 5.30674e-22)
(9.08636 0.00957783 0)
(9.64725 0.0186167 -3.79704e-21)
(8.76038 0.0225243 0)
(10.2683 -0.0013039 -1.28653e-22)
(10.1399 0.00437837 1.10095e-20)
(10.1395 0.00391189 2.389e-21)
(10.145 0.00417907 7.26316e-22)
(10.1502 0.00561989 2.35135e-21)
(10.1514 0.00440428 1.10472e-21)
(10.1467 0.00696231 1.23379e-21)
(10.2021 0.00307882 -3.90315e-23)
(10.1214 0.00211376 -3.43475e-24)
(10.3213 -0.00265799 -2.35414e-22)
(10.1441 0.00619257 1.96081e-21)
(10.1401 0.00451716 0)
(10.1416 0.00626784 -3.18632e-22)
(10.1449 0.00725677 -1.69188e-21)
(10.1426 0.00639826 -2.10578e-22)
(10.141 0.00538471 0)
(10.1408 0.0017788 0)
(10.1365 -0.00457238 2.99705e-22)
(10.132 -0.00341538 1.16583e-22)
(10.1281 -0.00208725 -2.32288e-21)
(10.1232 -0.000647512 -4.80848e-22)
(10.2068 -0.00458542 -2.07084e-23)
(10.3266 -0.00414087 0)
(10.1409 -0.007678 6.2317e-22)
(10.1484 -0.00455626 -1.49017e-22)
(10.1457 -0.00489184 -6.04333e-22)
(10.1414 -0.005614 -3.68833e-22)
(9.77438 -0.0296476 -5.53905e-22)
(8.88279 -0.0128495 0)
(9.70549 0.0164606 3.92488e-24)
(9.09608 0.00600184 4.71374e-22)
(8.76178 0.0207025 1.06994e-22)
(10.286 0.00324681 1.78148e-22)
(10.1456 0.00443483 -2.53042e-23)
(10.1462 0.00485356 2.52959e-23)
(10.1519 0.00621346 -1.21968e-21)
(10.1479 0.00757815 -1.98724e-21)
(10.1549 0.00409787 -8.79918e-22)
(10.1906 0.00623111 1.05958e-21)
(10.1074 0.00497651 -2.26914e-22)
(10.3172 0.000768241 1.36452e-22)
(10.1469 0.00535481 -9.45554e-22)
(10.1477 0.00636076 4.95525e-22)
(10.146 0.00828861 -4.96327e-22)
(10.1487 0.00754585 -6.81325e-22)
(10.1477 0.00931905 4.9236e-22)
(10.146 0.00770117 2.46561e-22)
(10.1421 0.0050141 1.86153e-21)
(10.1449 0.000841356 0)
(10.1378 -0.00529402 -6.38719e-22)
(10.1332 -0.00388247 3.0957e-22)
(10.1295 -0.00251068 1.99199e-21)
(10.1248 -0.000892654 3.76451e-22)
(10.1929 -0.00629067 -3.4979e-22)
(10.3171 -0.0033863 -5.89458e-22)
(10.1398 -0.00786609 3.99332e-22)
(10.1495 -0.00534161 2.6302e-23)
(10.1463 -0.0065015 8.82443e-22)
(10.1428 -0.00686673 0)
(9.7613 -0.0191677 -1.31336e-21)
(8.86912 -0.00639073 6.34823e-22)
(9.07549 -0.00157299 0)
(9.68093 0.0117747 5.65039e-23)
(8.75443 0.0197027 -7.38352e-22)
(10.313 0.0116559 1.98014e-22)
(10.1528 0.00531965 0)
(10.1531 0.00566196 -9.28333e-22)
(10.1565 0.00419801 -3.03775e-21)
(10.1737 0.0130425 2.20951e-21)
(10.1067 0.00387656 1.34933e-24)
(10.3164 0.00248426 -4.72181e-22)
(10.1533 0.00703922 1.10912e-21)
(10.1536 0.00847228 2.06837e-21)
(10.1501 0.00887629 2.03875e-21)
(10.1543 0.010195 -1.41277e-21)
(10.152 0.0101457 -1.03783e-21)
(10.1498 0.0104185 0)
(10.1473 0.00743631 -2.09493e-21)
(10.146 0.00574309 -2.13891e-21)
(10.1493 0.000841564 0)
(10.1392 -0.00591971 -2.92855e-21)
(10.1346 -0.00422835 7.66869e-21)
(10.1312 -0.002878 3.40654e-21)
(10.1263 -0.000971557 -6.42349e-22)
(10.1769 -0.00777091 -2.65484e-22)
(10.3019 -0.00405684 1.57653e-22)
(10.1509 -0.00736803 -7.10015e-22)
(10.1405 -0.00800978 9.96206e-22)
(10.1407 -0.00630689 0)
(10.1483 -0.00888579 0)
(10.1446 -0.00788355 0)
(9.82311 -0.0166459 2.90136e-22)
(8.87941 -0.00898606 4.84209e-22)
(9.68283 0.0051896 5.28822e-23)
(9.07973 -0.00895919 6.59661e-23)
(8.76069 0.0212325 -6.46393e-23)
(10.3286 0.0174069 -4.8842e-22)
(10.1584 0.00307138 0)
(10.1566 0.00472574 4.89703e-22)
(10.1652 0.0164947 7.42201e-22)
(10.1063 0.0038087 -1.11412e-21)
(10.3181 0.00804562 5.77835e-22)
(10.1571 0.00684433 -3.36241e-22)
(10.1584 0.00752557 -2.72104e-22)
(10.1553 0.0119657 -3.9402e-22)
(10.1597 0.0100891 0)
(10.1567 0.0139832 0)
(10.1542 0.0113772 -3.20088e-22)
(10.1523 0.0113579 2.7074e-21)
(10.1505 0.00816174 -1.11815e-20)
(10.1503 0.00585893 0)
(10.1538 0.000960331 0)
(10.1372 -0.00502796 4.12979e-21)
(10.1344 -0.00404955 -5.60505e-21)
(10.1283 -0.00110939 2.38752e-21)
(10.1395 -0.00566487 4.13253e-21)
(10.1526 -0.0104391 1.86575e-21)
(10.279 -0.00504147 -3.29976e-21)
(10.1513 -0.00929503 -9.84044e-23)
(10.1429 -0.00689389 0)
(10.1464 -0.0085385 0)
(10.1508 -0.0100379 -5.79232e-22)
(8.88507 -0.00588829 2.94098e-22)
(9.86048 -0.0142482 5.13695e-22)
(9.08962 -0.0249311 8.08567e-22)
(9.68727 -0.00847189 -7.79946e-22)
(8.76626 0.0185055 0)
(10.3381 0.0272523 1.0495e-21)
(10.0158 -0.0174739 1.28539e-19)
(10.1675 0.0158504 0)
(10.1636 0.00995778 -2.33461e-22)
(10.1129 0.00559629 -1.49824e-20)
(10.3296 0.00657144 -4.25991e-21)
(10.1529 0.0129958 1.46717e-21)
(10.1558 0.011448 -4.54355e-22)
(10.1611 0.0120409 2.86348e-21)
(10.154 0.0166645 4.50433e-22)
(10.1632 0.0144972 -8.25434e-23)
(10.1585 0.0158267 -1.11072e-22)
(10.1568 0.0125623 0)
(10.1552 0.0122716 -6.05844e-21)
(10.1543 0.00894585 2.26077e-20)
(10.1549 0.00632961 0)
(10.1556 0.00431444 6.99897e-21)
(10.1571 -0.000646553 0)
(10.129 -0.000612964 0)
(10.1351 -0.00351614 2.41831e-21)
(10.132 -0.00246545 -3.68258e-21)
(10.1405 -0.00555203 2.07513e-22)
(10.1444 -0.0071054 1.6084e-21)
(10.1387 -0.0145182 0)
(10.2596 -0.0088767 1.42753e-21)
(10.1558 -0.0112561 1.26095e-21)
(10.148 -0.00901012 6.05401e-22)
(10.1532 -0.0103948 0)
(9.88879 -0.00619802 1.21824e-21)
(8.86757 -0.000140434 -6.96242e-22)
(9.10582 -0.0298176 4.08591e-20)
(9.74104 -0.0150084 -2.82173e-20)
(8.7812 0.0160074 3.20706e-20)
(10.3336 0.0299799 -1.042e-21)
(10.0116 -0.00270881 -2.12869e-19)
(10.0142 -0.0198725 5.55635e-20)
(10.0108 -0.0138407 -6.24695e-20)
(10.022 -0.0211791 -8.27635e-20)
(10.0172 -0.0065131 1.88733e-19)
(10.028 -0.0266655 7.33537e-20)
(9.97292 0.017139 2.77625e-20)
(10.3405 -0.0152748 1.95192e-20)
(10.2798 -0.0294904 -1.84721e-20)
(10.1918 -0.000133014 -1.49617e-21)
(10.2033 0.00179247 -5.97163e-21)
(10.158 0.0114155 -2.87002e-22)
(10.1574 0.0177849 0)
(10.1617 0.0209155 -1.67233e-21)
(10.1652 0.0160225 0)
(10.161 0.0176578 0)
(10.1612 0.00788445 4.3662e-20)
(10.1599 0.0137815 1.10268e-21)
(10.1587 0.0130581 1.88847e-20)
(10.1589 0.00966194 -1.90264e-20)
(10.1589 0.00369256 -6.7717e-21)
(10.1583 -0.00140972 0)
(10.1603 0.00079 0)
(10.1565 -0.00255318 1.26093e-20)
(10.1319 -0.00168147 -5.39608e-22)
(10.1355 -0.00320572 -7.57567e-21)
(10.1426 -0.00594679 -4.84138e-21)
(10.1462 -0.00745009 -5.20832e-21)
(10.1497 -0.00935147 -7.58187e-22)
(10.1389 -0.0198004 0)
(10.2597 -0.0109612 -2.9518e-21)
(10.1589 -0.0122232 -1.13316e-21)
(10.1552 -0.0102454 -1.65734e-23)
(9.89173 0.000598064 7.65543e-21)
(8.76559 0.00648351 5.74263e-22)
(8.97731 0.0202317 2.60216e-20)
(10.3268 0.0113348 9.36701e-22)
(10.0008 -0.00197571 -5.61704e-20)
(10.0042 -0.00162368 5.6197e-20)
(10.007 -0.0090333 0)
(10.0193 -0.0246151 -2.27453e-20)
(10.0112 -0.0246203 8.55636e-20)
(10.0069 -0.0176146 7.2257e-20)
(10.1498 -0.00528818 0)
(10.1551 -0.0109785 7.04263e-21)
(10.1567 -0.0250618 5.64151e-21)
(10.0258 -0.0078229 -2.87989e-21)
(10.0314 -0.0193403 -1.90871e-20)
(10.0242 -0.0120496 4.80237e-20)
(10.0341 -0.0269416 -6.53478e-21)
(10.0258 -0.0304439 2.775e-20)
(9.51767 0.0553166 -6.07604e-20)
(10.3523 -0.0333589 -4.43904e-21)
(10.3281 0.00757319 2.7116e-20)
(10.273 -0.00107799 -9.87006e-21)
(10.1691 0.0133985 -1.68299e-22)
(10.1652 0.00724895 1.72796e-21)
(10.1565 0.0225189 -1.31132e-20)
(10.1693 0.0209602 0)
(10.1676 0.0183083 0)
(10.164 0.0197422 -1.08916e-21)
(10.1639 0.010204 0)
(10.1635 0.0150012 0)
(10.1629 0.0135789 -6.4529e-21)
(10.1657 0.00202988 0)
(10.1645 0.00461479 -3.16432e-20)
(10.1607 -0.00498508 -7.61732e-20)
(10.1647 -0.0015801 5.15191e-20)
(10.1657 -0.0165274 0)
(10.1735 -0.0339541 1.58993e-20)
(10.1346 -0.00158081 8.01519e-21)
(10.1383 -0.0039298 -4.11975e-22)
(10.1454 -0.00664604 -2.01303e-20)
(10.148 -0.00788245 1.1369e-20)
(10.1514 -0.00973647 2.14297e-22)
(10.1569 -0.0104412 -1.64054e-22)
(10.1442 -0.0206529 8.48762e-22)
(10.2491 -0.0144597 1.06543e-21)
(10.161 -0.0117175 -4.75891e-22)
(9.93292 -0.0197101 -1.17746e-20)
(8.57836 0.00817828 1.82056e-20)
(10.0004 -0.00286478 -1.16407e-19)
(10.003 -0.00950442 4.95167e-20)
(10.0163 -0.030807 -2.80895e-20)
(10.0092 -0.0286034 1.95091e-21)
(10.0052 -0.0203263 -1.37939e-19)
(10.1443 -0.0173745 -1.26968e-20)
(10.1378 -0.00784074 1.07989e-20)
(10.1448 -0.0341507 0)
(10.1839 -0.0562425 -3.01294e-20)
(10.1624 -0.0451712 -1.65788e-20)
(10.0401 -0.0164019 1.68664e-22)
(10.0392 -0.010979 -2.70473e-20)
(10.0414 -0.0308605 -1.92436e-22)
(10.0335 -0.0353821 -6.31551e-21)
(10.0237 -0.0376697 -2.9193e-20)
(8.65194 0.0442645 -4.47985e-20)
(9.83374 0.103506 1.29633e-20)
(10.3641 0.0415968 -1.30755e-20)
(10.3117 0.0226606 1.09343e-21)
(10.1779 0.0168041 4.66479e-21)
(10.1679 0.0100115 2.81166e-21)
(10.1714 0.00907188 9.26552e-21)
(10.1591 0.0225829 -2.52053e-21)
(10.1699 0.0231581 2.77667e-21)
(10.1702 0.0206148 0)
(10.1676 0.0223369 -8.99063e-21)
(10.1674 0.0134645 -1.03632e-20)
(10.1678 0.0161228 0)
(10.1736 0.00194744 -2.23541e-20)
(10.1721 0.0057321 -1.11684e-20)
(10.1733 -0.00329397 4.92376e-20)
(10.1709 -0.00945553 -1.83664e-20)
(10.1811 -0.0231488 -1.12844e-20)
(10.1951 -0.0411626 4.74132e-20)
(10.1378 -0.00203346 -4.8386e-21)
(10.1416 -0.00474641 8.98162e-21)
(10.1632 -0.0128241 2.24173e-21)
(10.1506 -0.00863588 6.63544e-21)
(10.1495 -0.00850189 0)
(10.153 -0.0102974 1.79285e-21)
(10.1584 -0.0107041 9.99364e-23)
(10.1539 -0.0103295 0)
(10.1536 -0.0178193 -1.84124e-21)
(10.1495 -0.018019 -1.56262e-21)
(10.2878 -0.00593317 1.36081e-21)
(10.0372 -0.0552299 3.23401e-20)
(10.0008 0.00226678 -1.46977e-20)
(10.0003 -0.00386024 0)
(10.0021 -0.01203 3.14753e-20)
(10.0142 -0.0363874 -7.0131e-21)
(10.0068 -0.0331527 0)
(10.0036 -0.0233578 1.04859e-20)
(10.2207 -0.0691148 -5.37964e-20)
(10.1206 -0.0105269 -7.14705e-23)
(10.1008 -0.0129385 0)
(10.1302 -0.024094 -5.03963e-21)
(10.1345 -0.043265 -1.21488e-21)
(10.0575 -0.0100883 0)
(10.0784 -0.00945999 0)
(10.1675 -0.0701456 1.45895e-20)
(10.148 -0.0552186 -1.43769e-22)
(10.051 -0.026074 1.04395e-19)
(10.0432 -0.0388962 4.98944e-20)
(10.0332 -0.0448614 1.27467e-20)
(10.0211 -0.0446398 0)
(8.45731 -0.00198461 3.57156e-20)
(9.41741 0.108927 0)
(10.2835 0.0579728 1.03608e-21)
(10.3183 0.025171 -1.20733e-21)
(10.1959 0.0180902 6.24244e-21)
(10.1722 0.0124913 1.19635e-20)
(10.1769 0.0102262 0)
(10.1604 0.0240893 3.83893e-21)
(10.1718 0.0254169 -8.11351e-22)
(10.1732 0.0234579 -3.50457e-21)
(10.1721 0.0251149 -1.67758e-21)
(10.1729 0.0168236 2.02079e-22)
(10.1838 0.00153601 -1.29306e-20)
(10.1806 0.00643579 1.45039e-20)
(10.1855 -0.00515629 1.34331e-20)
(10.1849 -0.0134563 -1.21895e-20)
(10.201 -0.0269603 -4.74724e-20)
(10.228 -0.0455917 3.37745e-24)
(10.1415 -0.00257164 -2.68811e-21)
(10.151 -0.0071656 -2.9637e-20)
(10.1463 -0.00598211 1.86021e-20)
(10.1726 -0.0182947 -2.11386e-21)
(10.1648 -0.0129029 -6.4103e-22)
(10.1547 -0.0110802 -1.70092e-21)
(10.1566 -0.0118222 0)
(10.1598 -0.0112335 1.31053e-21)
(10.1569 -0.0120139 8.54326e-21)
(10.1589 -0.0128461 0)
(9.66489 -0.0878146 -8.22391e-20)
(9.38432 -0.0905967 1.47449e-20)
(10.1402 -0.00816871 0)
(10.3265 0.00276484 5.39746e-21)
(10.0004 0.00279669 1.4386e-19)
(10.0022 0.00844749 -1.36755e-19)
(10.0046 0.0010404 0)
(10.0003 -0.00456917 -1.95934e-20)
(10.0014 -0.0137753 7.19017e-20)
(10.0115 -0.0425227 5.93437e-21)
(10.0037 -0.0352031 0)
(10.0013 -0.0245213 -1.65582e-19)
(10.2051 -0.0913333 5.37707e-20)
(10.2663 -0.0674167 2.26314e-20)
(10.1189 -0.0326664 -3.41313e-21)
(10.1015 -0.0267187 0)
(10.1186 -0.0514686 4.85728e-21)
(10.0819 -0.0232818 0)
(10.065 -0.0273033 -8.72463e-20)
(10.1471 -0.0803748 1.53662e-20)
(10.1315 -0.0602348 3.86097e-21)
(10.0554 -0.0402269 -2.00917e-20)
(10.0446 -0.0518538 -1.17279e-20)
(10.0301 -0.0533045 4.04499e-20)
(10.0165 -0.0520197 -3.83502e-20)
(8.1608 -0.0231874 5.07035e-21)
(9.11398 0.0769011 3.32741e-21)
(9.05083 -0.0677817 6.79697e-21)
(10.2356 0.0382485 -2.31511e-21)
(10.3408 0.027277 2.11444e-21)
(10.2081 0.022544 -2.37962e-21)
(10.1786 0.0164836 0)
(10.1847 0.0145589 -1.93593e-20)
(10.1621 0.027322 -4.53475e-21)
(10.1735 0.028243 7.57289e-21)
(10.1779 0.0266286 1.49475e-21)
(10.1772 0.0273322 1.10423e-20)
(10.1908 0.0106021 1.93529e-20)
(10.1962 0.00464135 0)
(10.2005 -0.00370972 0)
(10.2024 -0.0143306 0)
(10.2291 -0.0241519 0)
(10.2668 -0.039842 -4.67383e-20)
(10.3058 -0.06342 -7.31247e-20)
(10.1458 -0.00304179 2.68798e-21)
(10.1519 -0.00551199 8.28497e-21)
(10.1666 -0.013747 2.31762e-21)
(10.1658 -0.0139331 1.76233e-22)
(10.1612 -0.0122639 -1.57423e-21)
(10.1627 -0.0135139 -1.83472e-21)
(10.165 -0.0148974 0)
(10.1587 -0.0117072 0)
(10.1617 -0.0137903 0)
(10.1705 -0.00446603 0)
(10.3663 -0.0137485 3.987e-20)
(10.2982 -0.0295092 -3.01832e-20)
(10.0006 0.00484523 3.58965e-20)
(10.0023 0.0108663 -2.79991e-20)
(10.0049 0.0140269 -6.96634e-20)
(10.0137 0.00793534 0)
(10.0073 0.0109469 0)
(9.99992 -0.0048982 5.48287e-21)
(10.0009 -0.0153966 4.30635e-20)
(10.0078 -0.0459494 -1.27234e-21)
(10.0001 -0.0396197 -2.96592e-20)
(9.9994 -0.0301186 2.68301e-19)
(10.1824 -0.107199 1.46083e-22)
(10.2518 -0.0954697 4.55509e-20)
(10.3319 -0.104496 -7.17742e-20)
(10.0714 -0.0447523 -6.54504e-20)
(10.1023 -0.0508452 2.07716e-20)
(10.0892 -0.0406297 2.99547e-20)
(10.125 -0.0862518 0)
(10.1146 -0.0631388 -1.98632e-21)
(10.0586 -0.0588242 -1.61887e-20)
(10.0413 -0.0623411 -4.45067e-20)
(10.023 -0.0623648 2.25346e-20)
(10.0111 -0.0568605 -1.42389e-20)
(10.3285 -0.06778 0)
(8.03798 -0.0144847 -4.76631e-21)
(8.96723 0.0593668 2.2632e-21)
(8.85642 -0.0372876 -5.17242e-21)
(10.2084 0.0304283 7.1894e-22)
(10.3521 0.0290941 -7.02855e-22)
(10.2155 0.0307931 0)
(10.1841 0.0284758 0)
(10.1921 0.0277759 1.98774e-20)
(10.1773 0.0321431 0)
(10.1638 0.0352907 -7.59492e-23)
(10.1836 0.0299118 -1.45118e-21)
(10.2009 0.024517 -1.98658e-20)
(10.21 0.018242 0)
(10.2187 0.00815818 0)
(10.2256 -0.0059318 0)
(10.2611 -0.0151216 0)
(10.2944 -0.0339259 3.65587e-20)
(10.3373 -0.0485375 2.13583e-19)
(10.3657 -0.0675931 1.71742e-20)
(10.1492 -0.002124 0)
(10.1556 -0.00580707 -8.3869e-21)
(10.1675 -0.0131686 0)
(10.1667 -0.0146736 5.9147e-21)
(10.1676 -0.0170007 -1.54795e-20)
(10.1681 -0.0192185 4.73048e-21)
(10.1679 -0.0166611 -1.61784e-20)
(10.1626 -0.0123112 2.6085e-21)
(10.1643 -0.0135404 0)
(10.167 -0.0177079 2.38858e-20)
(10.1792 -0.011326 0)
(10.2687 0.017671 1.6515e-20)
(10.0006 0.00603108 -6.63391e-20)
(10.024 0.00792155 2.01448e-20)
(10.0034 0.0164452 0)
(10.0063 0.0204319 -1.20024e-21)
(10.0114 0.0147303 5.67401e-20)
(9.99982 -0.00454661 0)
(9.99905 -0.0147247 -4.79307e-20)
(10.0024 -0.0501735 3.29776e-20)
(9.99526 -0.03885 0)
(9.99592 -0.0297264 0)
(9.99821 -0.0211413 -1.81871e-21)
(10.1556 -0.117116 -2.44879e-21)
(10.3758 -0.14329 1.00419e-19)
(10.2208 -0.121585 -2.29051e-21)
(10.2941 -0.132218 -7.35907e-20)
(10.105 -0.0877157 5.44126e-20)
(10.0758 -0.0604836 0)
(10.0949 -0.0660409 -2.4569e-20)
(10.0558 -0.0714824 0)
(10.0311 -0.0740534 4.99343e-21)
(10.0152 -0.0694368 4.30356e-20)
(10.0038 -0.0620343 -1.71702e-20)
(10.2778 -0.0441455 0)
(7.97169 -0.014302 2.82969e-21)
(8.87345 0.0583288 -3.67863e-21)
(8.77241 -0.0338207 -7.70135e-22)
(10.1706 0.0247917 9.29959e-22)
(10.3546 0.032152 1.28295e-21)
(10.2175 0.0455116 6.02418e-22)
(10.2025 0.0342641 2.16557e-20)
(10.192 0.0326869 -1.05223e-20)
(10.1839 0.0375314 1.26261e-21)
(10.1675 0.0486896 -1.35798e-21)
(10.2142 0.0323734 -2.86082e-20)
(10.2268 0.0271792 1.699e-20)
(10.2517 0.00460981 0)
(10.2397 0.0185529 0)
(10.2846 -0.00717887 -1.30666e-20)
(10.3523 -0.00679809 7.77345e-20)
(10.3228 -0.0104972 0)
(10.3868 -0.0273212 -2.1647e-19)
(10.4095 -0.0981663 -1.38818e-19)
(10.1534 -0.00199105 4.60123e-21)
(10.1592 -0.00539041 -2.4915e-21)
(10.1663 -0.0119283 1.79755e-20)
(10.1677 -0.0190118 4.11188e-21)
(10.1709 -0.0178413 1.3441e-20)
(10.1709 -0.0223753 -1.95301e-21)
(10.1721 -0.017695 3.80202e-22)
(10.1683 -0.0143424 -2.20964e-21)
(10.1694 -0.0195191 8.6798e-21)
(10.1625 -0.0250279 0)
(10.2431 -0.0113436 -2.6807e-22)
(10.0002 0.0057623 -4.0615e-20)
(10.0016 0.0153461 8.2721e-20)
(10.0388 0.00743759 -2.92244e-20)
(10.0282 0.0195714 -5.32072e-20)
(10.0054 0.0232377 3.26322e-20)
(10.0107 0.0237525 -2.44789e-20)
(10.0205 0.0216374 5.20122e-20)
(9.99812 -0.0115129 0)
(9.99964 -0.00369939 0)
(9.99562 -0.0495733 -1.67797e-20)
(9.99021 -0.0373563 -5.57342e-20)
(9.99263 -0.0285308 1.70765e-20)
(9.99556 -0.0198242 1.86056e-21)
(10.1294 -0.12086 -1.7338e-20)
(10.4297 -0.194633 -1.72999e-19)
(10.1871 -0.141319 -4.56054e-21)
(10.3358 -0.183467 2.63724e-20)
(10.2546 -0.170512 2.99594e-20)
(10.0896 -0.0917672 -4.40375e-20)
(10.0717 -0.0773536 -1.30857e-20)
(10.106 -0.120136 2.44082e-20)
(10.0438 -0.0869616 -7.25943e-20)
(10.0215 -0.0847296 0)
(10.0054 -0.0762223 -1.34111e-20)
(9.99426 -0.0625068 -3.59074e-21)
(10.3034 -0.0456753 5.32377e-22)
(7.93228 -0.0224558 0)
(8.7823 0.0615765 1.11737e-21)
(8.69505 -0.0299586 0)
(10.1348 0.0194162 -1.3352e-21)
(10.3541 0.036524 -5.9552e-22)
(10.2088 0.0612111 9.42706e-23)
(10.2077 0.0498949 0)
(10.1941 0.0439197 8.91734e-22)
(10.1761 0.0610207 1.57198e-20)
(10.2255 0.0439685 0)
(10.2399 0.0380354 3.36365e-20)
(10.2713 0.0133243 -4.37407e-21)
(10.256 0.028989 -3.87125e-20)
(10.3098 0.00233149 -2.53124e-21)
(10.3587 0.0308321 9.62271e-20)
(10.3963 0.00753071 -4.42883e-20)
(10.4345 -0.0478579 1.61607e-19)
(10.4675 -0.138482 3.9736e-20)
(10.157 -0.00187214 0)
(10.1639 -0.00511423 0)
(10.1708 -0.0110174 -2.44093e-20)
(10.1724 -0.0147094 6.50926e-22)
(10.1684 -0.0231033 -9.49157e-21)
(10.1722 -0.020537 0)
(10.1739 -0.0264315 -2.42182e-21)
(10.1746 -0.0191443 -3.83628e-21)
(10.1736 -0.0203772 3.53039e-21)
(10.1691 -0.0270727 4.35994e-21)
(10.2608 -0.0136434 1.21011e-22)
(10.0001 0.00434478 3.33597e-20)
(10.0004 0.0131244 8.36155e-20)
(10.0018 0.0206618 -1.22274e-19)
(10.0037 0.0245433 -4.43338e-20)
(10.057 0.00733529 0)
(10.0413 0.0194756 3.40811e-20)
(10.0334 0.0301801 -4.10968e-20)
(10.0089 0.029095 -1.42927e-20)
(10.0168 0.0302369 0)
(10.0272 0.0310926 -8.74757e-20)
(10.0774 0.00695098 -4.22744e-21)
(9.99704 -0.00801407 5.01368e-20)
(9.99954 -0.00228601 0)
(9.99985 0.00370548 0)
(9.98793 -0.0473084 -2.07405e-20)
(9.98541 -0.0315782 4.39406e-20)
(9.99237 -0.0154097 -5.4033e-20)
(9.98822 -0.0235023 0)
(10.1493 -0.155354 -3.39262e-22)
(10.3836 -0.243828 1.49855e-20)
(10.2114 -0.194271 5.89645e-21)
(10.2897 -0.220208 3.09666e-22)
(10.0817 -0.115732 3.31829e-20)
(10.0606 -0.0989236 5.99427e-20)
(10.1122 -0.160297 0)
(9.98325 -0.0602268 4.40577e-20)
(10.0332 -0.103693 -7.78866e-22)
(10.0094 -0.0952303 0)
(9.99233 -0.0781721 -1.6578e-20)
(10.2869 -0.0421408 -7.73381e-23)
(7.90016 -0.026641 4.54004e-22)
(8.6986 0.0680739 -6.96205e-22)
(8.64885 -0.0269007 -1.23603e-21)
(10.2082 0.070875 0)
(10.1219 0.00704643 1.13094e-22)
(10.3478 0.0396373 -1.18573e-22)
(10.2062 0.0673065 -2.32842e-20)
(10.1901 0.0704471 3.65663e-21)
(10.2487 0.062817 -7.64445e-21)
(10.2332 0.0613138 2.8413e-20)
(10.2906 0.0373673 -5.48613e-20)
(10.3239 0.0460271 -1.00531e-19)
(10.2712 0.0408261 7.16417e-20)
(10.3827 0.0484262 0)
(10.4462 0.00871115 9.69018e-20)
(10.496 -0.0759762 0)
(10.159 -0.00160863 4.3391e-21)
(10.1713 -0.00411278 4.48027e-20)
(10.1755 -0.00926626 0)
(10.1774 -0.0143862 -3.78301e-22)
(10.1783 -0.0210354 -1.05455e-20)
(10.1699 -0.0293793 0)
(10.1746 -0.0225969 0)
(10.1776 -0.0295614 -3.54808e-22)
(10.1794 -0.0213225 1.02195e-20)
(10.1701 -0.0342114 1.12786e-21)
(10.2637 -0.0191785 -1.08262e-21)
(10.1563 0.00049644 -5.27941e-21)
(10.1516 0.00160112 0)
(9.99937 0.0130909 1.34614e-20)
(9.99925 0.0213922 0)
(10.0029 0.0287689 4.65743e-20)
(10.0068 0.0324786 1.43333e-20)
(10.0576 0.0203675 0)
(10.0441 0.031504 5.71766e-20)
(10.0345 0.0368946 3.77455e-21)
(10.0144 0.0367238 0)
(10.0243 0.0380241 0)
(10.0758 0.0219089 -4.31072e-22)
(10.0983 0.00594229 -4.05276e-21)
(10.1177 0.00349183 0)
(10.1334 0.000155589 4.69711e-20)
(10.1467 0.00504569 -4.64944e-20)
(9.99927 0.000644202 0)
(9.99572 -0.00261006 0)
(9.99966 0.00200007 0)
(9.99823 0.0115426 0)
(9.97159 -0.0514497 -2.15786e-20)
(9.98002 -0.0395163 5.48449e-20)
(9.98185 -0.0249426 0)
(9.98895 -0.0092606 5.34767e-20)
(10.1641 -0.213959 2.08673e-20)
(10.3307 -0.287347 2.31501e-20)
(10.2387 -0.251977 -2.11052e-20)
(10.0513 -0.123405 2.8359e-21)
(10.0774 -0.139378 -6.30594e-22)
(10.0969 -0.191824 1.04856e-20)
(10.1188 -0.229939 -3.69089e-20)
(9.96073 -0.0655645 0)
(9.97672 -0.0760176 -2.64628e-21)
(10.0186 -0.118594 0)
(9.99121 -0.0998255 0)
(10.3062 -0.0435395 0)
(8.60752 0.0737824 -1.71776e-22)
(7.85606 -0.0309103 -2.60827e-22)
(8.7154 -0.0394399 -1.01429e-20)
(10.3332 0.0514077 0)
(10.1662 -0.00310501 -4.25581e-21)
(10.2187 0.0957164 -3.98719e-21)
(10.2414 0.0727637 -1.40701e-20)
(10.3203 0.085625 0)
(10.2789 0.080222 0)
(10.3615 0.0806167 -3.90053e-20)
(10.4432 0.0643409 4.53708e-21)
(10.5129 -0.00720629 2.47412e-20)
(10.1693 0.000872187 -5.35438e-20)
(10.1803 -0.0070807 0)
(10.1829 -0.0128295 1.44899e-20)
(10.1842 -0.0208395 3.79329e-22)
(10.1847 -0.0230744 1.82948e-21)
(10.1726 -0.036732 -1.16255e-21)
(10.1786 -0.0255221 1.53671e-21)
(10.1826 -0.032454 0)
(10.2663 -0.0251148 3.02521e-22)
(10.172 -0.041618 -7.42202e-22)
(10.1567 0.0133456 2.24359e-20)
(10.1668 0.00522801 8.76119e-21)
(10.1611 0.00984504 -2.8546e-21)
(9.99798 0.02124 1.63993e-20)
(9.99973 0.0292926 -3.18878e-20)
(10.005 0.0372146 -1.61025e-20)
(10.0118 0.0416957 1.36542e-20)
(10.0586 0.0335477 0)
(10.0451 0.0409548 2.20695e-20)
(10.0334 0.0450173 -3.57075e-21)
(10.0219 0.0456584 1.12457e-21)
(10.0746 0.0364048 -1.72005e-20)
(10.0962 0.0270774 1.46463e-20)
(10.0917 0.037803 -7.58139e-21)
(10.1582 0.022792 1.36519e-20)
(10.1155 0.0254654 -1.12657e-23)
(10.1474 0.023857 -1.15518e-21)
(10.1332 0.0238434 4.13745e-21)
(9.99665 0.00852679 0)
(9.99262 0.00363104 0)
(9.99564 0.0196144 6.1024e-20)
(9.98541 0.0024421 -1.07188e-19)
(9.96077 -0.0417153 -5.67955e-20)
(9.97242 -0.0311241 2.54976e-20)
(9.98089 -0.0125223 1.70426e-20)
(9.94677 -0.0509318 0)
(10.1844 -0.276266 0)
(10.2717 -0.324646 1.49775e-20)
(10.0366 -0.1556 -2.35475e-20)
(10.0557 -0.210081 3.16359e-20)
(10.0613 -0.168767 3.08036e-20)
(10.0653 -0.248087 -1.58197e-20)
(10.1285 -0.293562 6.26103e-21)
(9.96894 -0.0962665 -4.44768e-20)
(9.94791 -0.0813487 5.29383e-20)
(9.99174 -0.12962 -3.86167e-20)
(10.3892 -0.0543849 2.69741e-21)
(8.51384 0.103514 8.96788e-21)
(7.78548 -0.0326868 -4.76237e-20)
(8.72383 -0.0980744 -5.91529e-21)
(10.3602 0.0608997 1.69484e-20)
(10.2567 0.016823 -1.84424e-20)
(10.2521 0.108575 4.21036e-20)
(10.263 0.081931 -2.31759e-20)
(10.3417 0.11807 1.84271e-19)
(10.4263 0.118301 3.1172e-19)
(10.5174 0.0634355 -2.35531e-19)
(10.1814 -0.00175927 0)
(10.1886 -0.00957346 -3.03846e-20)
(10.1911 -0.0191004 -1.0932e-22)
(10.1918 -0.0239158 -1.18872e-20)
(10.1893 -0.0342067 1.19151e-21)
(10.1782 -0.0446548 3.88509e-22)
(10.1845 -0.0294103 5.87383e-22)
(10.2331 -0.0325433 -2.68102e-22)
(10.1693 -0.0499108 0)
(10.1671 0.0145986 0)
(10.1816 0.0047129 0)
(9.99305 0.028335 1.01851e-19)
(9.99684 0.0297936 -1.67966e-20)
(10.001 0.0385732 4.97935e-20)
(10.0089 0.0477005 0)
(10.0193 0.052635 -4.34742e-20)
(10.059 0.0454455 -6.45406e-21)
(10.045 0.051023 -1.45249e-21)
(10.0316 0.0546803 1.48169e-20)
(10.0744 0.0484591 1.09742e-20)
(10.0909 0.0553783 1.71159e-20)
(10.1065 0.047365 -6.03682e-21)
(10.1683 0.0239678 5.97147e-21)
(10.1638 0.0307903 1.45158e-20)
(10.1218 0.0443006 1.21196e-21)
(10.1537 0.0350605 -2.5064e-21)
(10.1395 0.0399707 -1.32466e-20)
(9.99258 0.0164993 5.80911e-20)
(9.98735 0.0117366 7.48852e-20)
(9.9891 0.0248703 -2.20971e-19)
(9.97704 0.000862581 -1.78154e-20)
(9.93091 -0.0667382 1.64502e-20)
(9.95033 -0.0236204 -2.77349e-19)
(9.96442 -0.0122698 8.9009e-20)
(9.9341 -0.0260282 0)
(9.98672 0.031705 4.48722e-20)
(10.2074 -0.353166 -3.08446e-21)
(9.99981 -0.170994 0)
(10.0114 -0.202568 6.75966e-20)
(10.0204 -0.249352 -3.92451e-20)
(10.0698 -0.303698 0)
(10.1382 -0.371548 -4.53935e-21)
(9.94628 -0.162164 -9.44934e-20)
(9.95311 -0.129224 3.23226e-20)
(9.92724 -0.119671 -1.34336e-19)
(10.4167 -0.095602 7.44016e-21)
(8.32332 0.223339 3.28196e-21)
(7.78365 -0.0421446 2.98606e-19)
(8.31894 -0.228053 -1.70319e-19)
(10.3275 0.1498 -1.86348e-21)
(10.2874 0.1431 -1.60581e-19)
(10.3539 0.148164 8.16773e-20)
(10.3953 0.167537 -1.84509e-19)
(10.5062 0.136401 -7.77166e-21)
(10.1936 -0.004184 1.59938e-20)
(10.1984 -0.0150083 -3.41998e-23)
(10.2006 -0.0227289 1.69809e-20)
(10.1986 -0.0345125 -1.12865e-21)
(10.185 -0.0540191 -7.4874e-22)
(10.1927 -0.0332996 1.86596e-21)
(10.2111 -0.0519593 1.56241e-22)
(10.1762 -0.0604554 2.01938e-20)
(10.1818 0.0133101 0)
(10.1974 0.00374578 -1.8253e-20)
(9.99125 0.0370807 -3.71467e-20)
(9.9965 0.0391263 -3.3271e-20)
(10.0037 0.0512449 0)
(10.0162 0.0614164 -2.77379e-20)
(10.0295 0.0631229 1.58372e-20)
(10.0593 0.0565504 6.20843e-21)
(10.0439 0.0635391 0)
(10.0758 0.0615361 -3.09922e-21)
(10.0945 0.0631432 -1.72514e-21)
(10.1133 0.0627183 4.3882e-21)
(10.1812 0.024372 -1.0437e-20)
(10.1751 0.0349681 0)
(10.1314 0.0589066 -5.38036e-22)
(10.1642 0.0447219 -1.0541e-21)
(10.1492 0.0525811 -7.25937e-21)
(9.97911 0.0114812 -3.24529e-20)
(9.98209 0.0238852 0)
(9.96 0.00054302 2.05486e-19)