/*--------------------------------*- C++ -*----------------------------------*\
  =========                 |
  \\      /  F ield         | OpenFOAM: The Open Source CFD Toolbox
   \\    /   O peration     | Website:  https://openfoam.org
    \\  /    A nd           | Version:  8
     \\/     M anipulation  |
\*---------------------------------------------------------------------------*/
FoamFile
{
    version     2.0;
    format      ascii;
    class       volScalarField;
    location    "0.046";
    object      p;
}
// * * * * * * * * * * * * * * * * * * * * * * * * * * * * * * * * * * * * * //

dimensions      [0 2 -2 0 0 0 0];

internalField   nonuniform List<scalar> 
656
(
2.42822e-06
-0.235411
1.72853
-0.786678
0.189111
1.73117
-1.15104
-1.55282
2.05483
1.7065
1.76615
-0.438511
0.386132
1.74765
2.03434
2.25899
1.63667
1.58739
2.26825
2.39121
1.80225
1.82132
1.78654
1.818
-0.0677962
0.616184
1.77432
2.0171
2.25025
1.84396
1.86676
2.55669
2.39616
2.38622
2.55443
2.6902
2.15674
2.17283
2.13743
1.78238
1.85343
0.280506
0.818517
1.80938
2.00677
2.2432
2.18707
2.19963
2.86074
2.69102
2.55893
2.38198
2.55206
2.68896
2.86123
3.02804
2.16173
2.17611
2.18767
2.12058
2.14606
1.82903
2.00064
2.2359
2.19794
2.20677
3.02688
2.85883
2.69149
3.34549
2.37741
2.54914
2.6866
2.86012
3.02789
2.18303
2.1931
2.19492
2.19444
1.98949
2.22555
2.19373
2.19319
3.61278
3.34121
3.0231
2.85646
3.34601
3.56278
4.81696
2.36915
2.54667
2.68262
2.86037
3.02921
2.09357
2.08904
2.09036
2.09253
2.09441
2.09577
5.39499
5.07791
3.65393
3.32901
3.01777
3.35213
3.52811
4.58621
5.00433
2.11847
2.10223
2.09391
2.08757
2.08144
2.076
3.46398
5.83364
5.30414
3.68529
3.31236
3.39819
2.13887
2.12654
2.11539
2.10612
2.09793
2.09075
3.53798
3.54923
6.25268
5.518
3.7027
3.53249
2.22698
2.21235
2.19979
2.18945
2.18036
2.17246
3.18952
3.54083
3.65145
6.69748
5.77352
3.19334
2.32699
2.31449
2.30245
2.29217
2.2833
2.27582
3.1229
3.1877
3.53836
3.76315
7.19331
3.13368
3.07512
2.40856
2.40921
2.40302
2.39174
2.38019
2.37046
3.06655
3.1129
3.1857
3.5285
3.85136
3.07034
2.47229
2.50193
2.49532
2.4785
3.06541
3.05778
3.10364
3.18155
3.51423
3.07095
3.18757
2.31932
2.30736
3.08448
3.06833
3.05949
3.05035
3.09372
3.17548
3.15738
3.192
3.21451
3.09286
3.08369
3.06503
3.05462
3.04335
3.08423
3.13654
3.15903
3.19653
3.21571
3.33847
3.09795
3.09259
3.08257
3.06268
3.05033
3.03703
3.12347
3.13655
3.15966
3.19962
3.2279
3.38537
3.10046
3.0983
3.09277
3.08209
3.06081
3.04659
3.11572
3.12298
3.13615
3.15951
3.20146
3.23871
3.09862
3.1007
3.09871
3.09305
3.08188
3.05923
3.11138
3.11498
3.12225
3.13541
3.1591
3.20234
3.10093
3.09834
3.10086
3.09915
3.09345
3.08174
3.11403
3.11101
3.11422
3.12148
3.13461
3.1587
3.1034
3.10066
3.09824
3.10096
3.09958
3.09382
3.10735
3.11023
3.11434
3.11071
3.11355
3.12072
3.13396
3.10325
3.10037
3.0982
3.10103
3.1
3.10743
3.11059
3.11447
3.11055
3.11295
3.12011
3.10311
3.10012
3.09818
3.1011
3.10752
3.11092
3.11453
3.11046
3.11239
3.10298
3.09988
3.09817
3.10759
3.11122
3.11456
3.11037
3.10286
3.09968
3.10766
3.1115
3.11459
3.10276
3.10771
3.11175
0.611904
0.92102
2.12111
2.05048
1.83016
1.80115
1.83266
1.3691
1.47458
1.26354
1.80876
1.85014
2.14506
2.14393
2.16573
2.16185
2.106
2.0806
2.01335
1.95891
1.74487
1.5663
1.91246
1.84326
1.99327
1.99101
1.88179
2.10646
2.10827
2.14131
2.15652
2.16356
2.12661
2.08149
2.09225
2.0013
1.94348
2.13242
2.22586
2.1143
2.36209
2.2729
2.13667
2.07587
4.46984
4.70435
3.32686
2.55002
2.45659
3.1741
3.02278
2.68306
2.64635
2.96565
2.8659
2.80964
2.14224
2.1143
2.12955
2.17244
2.22574
2.21826
2.20903
2.20977
2.2629
2.16376
2.45115
2.39418
2.28228
2.29818
3.96876
3.53541
3.45054
3.9849
3.79646
3.42546
3.28019
3.31068
3.16955
2.62092
2.52772
3.08357
2.97652
2.88879
2.81557
2.74333
2.14615
2.16474
2.19191
2.2504
2.27662
2.3445
2.36919
2.56647
2.41798
2.36485
2.65355
2.48441
2.42338
3.66981
3.53969
3.4893
3.52745
3.44795
3.36994
3.22805
3.17456
3.05189
2.96095
2.87924
2.73973
2.70093
2.23643
2.25237
2.27649
2.36722
2.38579
2.43688
2.47476
2.58814
2.54005
2.80891
2.7333
2.59662
2.54105
3.18424
3.31876
3.32935
3.35994
3.27949
3.20692
3.1151
3.03181
2.892
2.97803
2.91263
2.33759
2.55225
2.37884
2.39139
2.43995
2.45293
2.51796
2.85252
2.69212
2.73516
2.88283
2.59743
2.70621
2.68035
2.88302
3.12827
3.15316
3.00082
2.96645
3.0852
3.03082
3.19338
3.24029
3.21781
3.00979
2.98412
3.17412
3.02799
3.04259
2.4276
2.62018
2.5363
2.59491
2.47669
2.47969
2.51193
2.74714
2.81528
2.8688
2.92068
2.67876
2.7537
2.70945
2.91812
2.97929
3.03634
3.0323
3.09701
3.14387
3.12416
3.06805
3.06547
3.07256
3.06032
3.08202
3.12763
3.05145
3.07575
3.03788
3.07615
3.07689
3.09121
3.07349
3.06675
3.07142
2.56072
2.45429
2.52568
2.63881
2.65806
2.53244
2.545
2.63156
2.94434
2.79817
2.83884
2.67771
2.79857
2.98255
2.96402
3.04125
3.07004
3.09683
3.13988
3.14442
3.20212
3.22619
3.22663
3.19704
3.16882
3.18899
3.14266
3.20245
3.18169
3.1849
3.1439
3.11815
3.10734
3.05696
3.09842
3.10054
3.12587
3.0968
3.07078
3.06117
3.06666
3.06357
3.06733
3.09321
3.23787
2.45095
2.33631
2.41826
2.56499
2.59395
2.67088
2.84077
2.82942
2.86808
3.11014
3.00029
3.00871
3.26977
3.16311
3.14074
3.30404
3.27828
3.36669
3.165
3.1338
3.16504
3.1534
3.15685
3.08091
3.08252
3.13199
3.10791
3.11354
3.08874
3.06216
3.09257
3.0985
3.08732
3.09075
3.10216
3.37791
3.18428
3.0669
3.02381
3.02721
2.98073
2.77849
3.02509
3.32035
3.0914
3.09106
3.14584
3.13198
3.13861
3.12818
3.13741
3.09339
3.09131
3.12662
3.1148
3.10214
3.09167
3.10289
3.08917
3.54065
3.09764
3.09756
3.09735
3.09839
3.09941
3.10027
3.12687
3.11418
3.12541
3.12324
3.12451
3.09813
3.10526
3.10034
3.11314
3.11535
3.09928
3.10176
3.10012
3.1004
3.09936
3.10018
3.11754
3.11457
3.116
3.11642
3.11601
3.10223
3.10466
3.10802
3.10955
3.11268
3.11158
3.10176
3.1029
3.1011
3.10168
3.1122
3.1121
3.11025
3.10521
3.10949
3.10704
3.11324
3.11192
3.10354
3.10504
3.1072
3.10975
3.10938
)
;

boundaryField
{
    movingWall
    {
        type            zeroGradient;
    }
    fixedWalls
    {
        type            zeroGradient;
    }
    frontAndBack
    {
        type            empty;
    }
    defaultFaces
    {
        type            empty;
    }
}


// ************************************************************************* //
