/*--------------------------------*- C++ -*----------------------------------*\
  =========                 |
  \\      /  F ield         | OpenFOAM: The Open Source CFD Toolbox
   \\    /   O peration     | Website:  https://openfoam.org
    \\  /    A nd           | Version:  8
     \\/     M anipulation  |
\*---------------------------------------------------------------------------*/
FoamFile
{
    version     2.0;
    format      ascii;
    class       surfaceScalarField;
    location    "0.046";
    object      phi;
}
// * * * * * * * * * * * * * * * * * * * * * * * * * * * * * * * * * * * * * //

dimensions      [0 3 -1 0 0 0 0];

internalField   nonuniform List<scalar> 
662
(
-2.02946e-05
1.61308e-05
4.16401e-06
2.07612e-05
-4.10558e-05
-8.80172e-05
3.59014e-05
6.82466e-05
-1.7369e-05
2.1533e-05
-0.000152053
8.47975e-05
1.04105e-05
-5.14663e-05
9.36883e-05
-7.5156e-05
-2.25907e-05
4.41237e-05
-0.000180875
3.92323e-05
1.72316e-06
-5.31895e-05
2.20011e-06
-0.00012176
-4.68912e-06
0.000124249
-3.42132e-05
3.64133e-05
0.000164301
-9.3203e-05
5.59358e-05
-1.18121e-05
-0.00018385
4.6978e-06
-7.67093e-07
-5.24224e-05
1.15331e-06
-0.000116907
-6.00581e-06
-3.30599e-05
5.76571e-05
-1.72134e-06
0.000195996
-4.35078e-05
-0.00018186
-2.75711e-06
-2.22601e-06
-5.01964e-05
3.6561e-06
-0.000103284
-1.72796e-05
-2.94038e-05
5.73983e-05
2.58796e-07
0.000198693
-4.41745e-06
-1.52265e-06
0.000123236
-0.00012344
1.72667e-06
3.45632e-05
-3.60858e-05
-0.000177427
-6.65845e-06
-4.10404e-05
-9.15596e-06
-2.18922e-05
-1.91483e-05
-1.71505e-05
-4.74164e-06
4.83071e-06
-8.8067e-05
-2.00475e-05
-2.45731e-05
-0.000141464
-0.000756515
0.000897979
6.06695e-05
-3.27119e-06
8.98005e-05
-2.9131e-05
-5.16636e-05
0.000199405
-4.53901e-07
-4.22974e-07
0.000120467
3.19221e-06
3.41402e-05
-0.000153164
-3.34197e-05
-9.62258e-05
-7.60862e-05
-4.39527e-05
-6.94236e-05
2.21352e-05
-2.68768e-05
3.45326e-06
-7.67585e-05
-1.47618e-05
-2.11199e-05
-0.00039059
0.000705354
-0.00107128
-0.00095389
0.00185187
0.000216857
-2.07231e-05
0.000293573
-0.000105847
-0.00014868
-3.58746e-06
0.000106845
1.7209e-05
3.05528e-05
-0.000116327
9.45099e-05
2.7261e-05
-5.41378e-05
-2.76854e-07
-3.90732e-07
-7.60909e-05
-2.13967e-05
0.00135484
-0.00160337
-0.000107457
0.00195933
-4.16133e-06
9.27948e-05
1.82118e-05
2.63915e-05
-0.000197816
0.00010875
-6.58832e-05
1.17453e-05
0.00161585
-0.000368472
0.0019929
-3.35782e-05
-2.85348e-06
8.00608e-05
1.55875e-05
2.3538e-05
-6.82044e-05
2.3212e-06
-0.000228616
4.25452e-05
0.001991
1.90807e-06
0.00171121
-0.000128933
-5.42604e-06
2.9641e-05
5.58458e-05
1.81119e-05
-6.76299e-05
-5.74448e-07
-0.000232785
6.48994e-06
-1.77877e-08
-0.000112281
0.000108846
3.45252e-06
-3.15404e-05
3.15226e-05
0.00196108
2.99156e-05
0.00173142
-1.83018e-05
-0.00180571
0.000950128
0.00085558
-6.81907e-05
5.60769e-07
0.00191694
4.41423e-05
0.00187815
3.87887e-05
7.24413e-05
0.000156743
0.000793386
9.93475e-05
5.73953e-05
3.11568e-05
-0.000233503
1.43494e-07
-4.12102e-07
-0.000113023
1.1539e-06
-3.19525e-05
0.00171184
4.94985e-05
-0.000172074
-7.87453e-06
4.15516e-05
0.000138397
-0.00136386
0.000783598
0.00143584
-0.000244544
1.16023e-05
0.00167132
8.46601e-05
0.00158396
0.00012615
0.000292542
0.000416183
0.0011608
0.000321755
0.000151823
0.000108368
-8.56313e-08
-0.000111927
-1.01041e-06
-3.20381e-05
-0.000179575
-1.51403e-06
9.01494e-06
-5.33114e-05
4.54369e-05
4.7669e-07
-0.000109824
-2.57955e-06
-3.15614e-05
-0.000164437
4.63985e-06
-1.97772e-05
-5.48255e-05
1.65922e-06
-9.96481e-05
-1.18349e-05
-2.99022e-05
-0.000142583
7.19627e-06
-2.90507e-05
-5.01857e-05
7.86637e-06
-4.25117e-05
-6.50027e-05
-2.20358e-05
-0.00012762
4.22815e-06
-1.91914e-05
-4.29894e-05
3.91786e-06
-2.01334e-05
-0.000111404
-3.87613e-05
-3.48434e-05
0.000501215
-0.000416418
-0.000139597
0.000207844
0.000361618
0.000132688
-0.00095633
0.000519786
0.000436544
-0.000537923
-0.000418407
-0.000666873
0.00037121
0.000295663
-0.000147087
-0.000749213
0.000211291
-0.000121535
-0.000627679
-0.000367397
0.000245862
0.000210493
-0.000626911
-0.000643149
0.000853642
-0.00106156
4.15404e-05
-0.000669219
-0.00102002
-0.000587679
-0.00010087
-0.000568349
-0.000372086
-0.000472956
-0.000415377
0.000548065
-0.000799883
0.00123643
-5.37593e-05
0.000115668
0.00112076
0.000486877
0.000454862
9.91317e-05
0.000387746
0.000422665
-0.000127002
0.000521796
-0.000470728
0.000343726
-0.000617815
-0.000406524
-0.000160662
3.64133e-05
0.000213389
-0.000801068
-0.000806627
-0.00137498
-0.00079637
-5.81384e-05
-0.00131684
-0.000478962
-0.000537101
-0.000241362
0.000696224
0.000879398
0.00126714
0.000652716
0.000241561
0.00102558
0.00040452
0.000117276
0.000646081
0.0001842
0.000159526
0.000301477
3.60858e-05
0.000120938
-0.000917308
-0.0011959
-0.000920066
2.96979e-05
-0.0012256
-0.00055438
-0.000524682
-0.000169546
0.000822262
0.000856037
0.000817844
0.000441609
0.000204472
0.00129765
0.000303204
0.000507675
1.38443e-05
-0.00093391
-0.00121175
-0.000940568
-0.00127333
6.15814e-05
-0.000831334
-0.000442
-0.00054473
-0.000483149
0.000780982
3.68618e-05
0.000780528
0.00131036
-1.2716e-05
0.00134722
0.000510867
0.000498151
-0.000329837
-0.000610731
-0.00116117
-0.000946755
-0.000214416
-0.000644151
-0.000391283
-0.000555472
0.000396938
-0.000611354
-0.00069938
0.00025738
-0.000302441
-0.00049791
-0.00024053
0.000918937
-0.000138408
0.000898214
0.00142279
-7.5564e-05
0.00128438
0.00051536
0.000439796
0.000308507
-0.000459699
0.000151192
-0.000302847
-0.00069413
-0.000135337
-0.000324362
0.00035244
-0.000428526
-0.000291711
-0.000847183
6.10561e-05
-0.000908239
-0.000633074
-0.000127553
-0.000300974
-0.000196976
-0.000102466
-0.000392521
9.008e-05
-0.000241329
-0.000240921
-0.000150841
-0.000160555
-8.07736e-05
-0.000295893
-0.000134185
-0.000161708
0.00144085
-0.00158953
0.0020057
-0.000564855
0.000934421
-0.000668953
0.000855913
4.23009e-05
0.000750066
-0.00083946
-0.00083191
0.000874211
0.00135128
-6.68995e-05
0.000519368
0.000458008
0.000391109
0.000558031
-0.00139749
0.00139242
-0.000834388
0.000494909
-0.000629094
-0.000170547
-0.000462527
0.000100377
-0.00040135
0.000807862
-0.00127039
-0.000503816
-0.000438139
-0.000190956
-0.000395067
-0.000531531
9.33925e-05
2.38736e-05
-0.000555405
-0.000248329
9.74876e-05
-0.000329102
0.00049081
-0.000397418
-2.13967e-05
-0.00224384
0.00167899
-0.000851422
0.00101003
-0.000739688
-0.000111733
0.000641561
0.00124607
-0.000371858
-0.000151423
0.000656124
-0.000136756
0.000284266
0.000406696
0.000269941
0.000517259
-1.86571e-05
-0.000498602
-8.57588e-05
-0.000748629
-0.000825447
-0.000308188
0.00030623
-0.000457653
-0.000442399
-0.000865949
-0.00040444
-0.0010569
-0.00103303
-0.000799506
-0.000756961
-8.53199e-05
-0.000947711
-0.000498984
-5.6421e-05
-0.000584304
-0.000257049
-0.000140369
-0.00031347
-3.15226e-05
-0.000729228
0.000617495
-0.000747885
0.00125906
0.00113012
-0.000290455
-0.00045743
0.000485986
-0.000776442
0.000491709
-0.000207442
3.40558e-05
0.000730959
-0.000244972
0.000232357
0.000299582
9.21392e-05
0.000340219
-0.000107862
3.20311e-05
0.000226898
-0.000192842
-0.000215501
-0.00018347
-0.000379216
0.000134244
-0.000122211
-0.000825501
-0.000879172
-0.000872682
-0.00044314
-0.000141163
-0.00126864
-0.000310017
-0.00045118
0.000184485
-0.000641915
0.00131461
0.00129631
-0.000439247
-0.000337195
-0.00108116
-0.000337665
-0.000674859
0.000166097
-7.39578e-05
-2.67455e-05
-0.000210215
0.000318078
-0.000183834
1.81119e-05
-4.54369e-05
-0.000928205
5.55234e-05
-0.000928062
-0.0012293
-3.93383e-05
-0.00117378
-0.000450027
-0.000489365
0.00128079
1.55132e-05
0.00133029
-0.00101836
-6.27994e-05
-0.00100285
-0.000665844
-0.000728644
0.00117255
0.000263286
0.00233335
-0.00091486
-1.32023e-05
-0.000903257
-0.00102667
-0.000147107
-0.00103988
-0.000490375
-0.000637482
0.00132492
5.37268e-06
0.00140958
-0.001134
0.000131155
-0.00112863
-0.000748421
-0.000617266
0.00113849
-0.000845948
0.00140178
-0.000898467
-4.79013e-06
-0.000790099
0.00126266
0.000146915
0.00138881
0.000542866
-0.00181095
0.00102085
-0.000674222
0.002076
-0.00165913
0.00110424
-8.33831e-05
0.000865568
-0.000870358
-0.00124668
0.0002068
-0.000381107
-0.000640061
-0.000433262
0.000631009
-0.000484094
-0.00120586
7.72279e-05
-0.00057485
-0.000646317
-0.000569089
-0.000300206
0.000843072
0.00177579
0.00116706
-6.28251e-05
0.000296705
-0.000839698
0.000355603
3.37435e-06
0.000781992
0.000993799
0.000698609
0.000443677
0.000254933
0.000380851
-0.000646296
0.000265189
-0.000349591
-0.000445096
-0.000179908
-0.00077209
0.00019724
-0.000416486
-0.000588281
-0.000391041
-0.000591149
0.000594523
0.00040265
-0.000491203
0.000141611
-0.000110351
-0.000633693
0.000217207
-3.91694e-05
-0.000310695
0.000200344
-5.57624e-05
0.000346887
-0.00022242
-8.08082e-05
-0.000411174
-0.000193967
-0.000340215
0.000146248
-0.000167847
8.70386e-05
3.24971e-05
-0.000379385
-2.20358e-05
3.48434e-05
)
;

boundaryField
{
    movingWall
    {
        type            calculated;
        value           uniform 0;
    }
    fixedWalls
    {
        type            calculated;
        value           uniform 0;
    }
    frontAndBack
    {
        type            empty;
        value           nonuniform List<scalar> 0();
    }
    defaultFaces
    {
        type            empty;
        value           nonuniform List<scalar> 0();
    }
}


// ************************************************************************* //
