/*--------------------------------*- C++ -*----------------------------------*\
  =========                 |
  \\      /  F ield         | OpenFOAM: The Open Source CFD Toolbox
   \\    /   O peration     | Website:  https://openfoam.org
    \\  /    A nd           | Version:  8
     \\/     M anipulation  |
\*---------------------------------------------------------------------------*/
FoamFile
{
    version     2.0;
    format      ascii;
    class       volScalarField;
    location    "0.006";
    object      p;
}
// * * * * * * * * * * * * * * * * * * * * * * * * * * * * * * * * * * * * * //

dimensions      [0 2 -2 0 0 0 0];

internalField   nonuniform List<scalar> 
424
(
-7.35327e-06
0.0680603
0.0126627
0.0780168
0.102319
0.246805
0.0645478
0.00291024
0.273919
0.483636
0.421112
0.430765
-0.0339304
-0.184617
0.495948
0.737177
0.485542
0.489659
-0.43416
-0.215323
0.735971
0.990114
0.656408
0.657008
-0.68664
-0.449643
-0.347866
-0.359519
0.97584
1.23735
1.42537
1.50087
0.8415
0.839833
-3.53375
-0.905041
-1.12042
-1.38332
-0.689742
-0.414852
-0.41863
1.20698
1.38693
1.4883
1.41901
1.00705
1.00475
-2.89902
-2.72746
-0.90237
-1.1333
-1.18157
-0.585775
-0.586708
1.43373
1.48802
1.06371
1.06051
-2.34264
-1.20561
-0.778059
-0.776351
1.52783
1.67367
-1.11506
-0.666441
-0.971115
-0.971341
1.91221
1.70445
-0.0377224
-0.637206
-1.06861
-1.09137
2.16463
1.92542
1.84383
1.85274
0.71239
-0.00898483
4.38987
2.39062
1.45898
2.10939
2.70748
5.20582
2.85368
2.59556
2.16308
1.91769
1.9217
0.717389
-0.379041
3.96077
2.38293
1.44524
2.08322
2.58191
4.49136
2.61929
2.60606
2.08748
2.08821
-0.168761
-0.404218
2.28184
2.28054
0.380411
-0.168912
2.47762
2.48193
0.96489
0.380007
2.58731
2.61592
1.53546
0.963295
1.77484
1.53043
1.7928
0.122967
0.0305695
0.0474319
0.0483688
0.0723514
0.152572
-0.0381933
0.00555583
0.202431
0.285462
0.302045
0.150247
0.160884
0.198071
0.311846
0.287151
0.283692
0.415682
0.409164
0.420171
0.030252
-0.00381362
0.0486545
0.0304649
-0.0372898
-0.0705918
-0.0624577
-0.159602
-0.086166
-0.181659
-0.0230501
0.0381428
0.0772553
0.12173
0.263394
0.16647
0.352965
0.345059
0.459254
0.497959
0.562181
0.489308
0.580415
-0.0704603
-0.0682652
-0.188824
-0.226092
-0.242582
-0.253701
-0.274663
-0.0659961
-0.266519
-0.101855
-0.200325
0.626737
0.624588
0.738248
0.77192
0.661839
0.772155
-0.309044
-0.298447
-0.450716
-0.341541
-0.397851
-0.34856
-0.351796
0.876958
0.878821
0.97531
0.958134
1.05399
0.845653
0.942182
-0.55482
-0.685484
-0.504681
-0.562288
-0.419792
-0.51853
1.11957
1.13468
1.20274
1.19551
1.2665
1.21633
1.10886
1.1843
1.00712
1.08427
-0.8077
-0.900066
-0.709256
-0.797862
-0.590989
-0.713864
1.32287
1.29834
1.3092
1.36069
1.37032
1.34471
1.34683
1.37246
1.37788
1.45753
1.47167
1.44605
1.20063
1.27967
1.07295
1.19822
1.35592
1.38718
1.45206
-1.28266
-1.66547
-2.52289
-2.14881
-1.03584
-1.13136
-1.23901
-1.02989
-0.897192
-0.970679
-0.782696
-0.894675
-1.15833
-1.28002
1.48712
1.43501
1.44473
1.44001
1.49637
1.44123
1.46726
1.519
1.55277
1.57647
1.66122
1.33552
1.41555
1.51971
1.48501
1.18736
1.27731
-1.52019
-1.44666
-1.69378
-1.23921
-1.11763
-1.12231
-1.17251
-1.04069
-1.09666
-0.967565
-1.04997
-0.875317
-1.21464
-1.11734
-1.08242
-1.13474
-1.24386
1.55627
1.6048
1.67243
1.55813
1.71753
1.71185
1.72827
1.75608
1.56615
1.73905
1.60483
1.69471
-0.868521
-0.746915
-0.994237
-0.623158
-0.701936
-0.569544
-1.12923
-1.13319
-0.747089
-0.766456
-1.07345
-1.15656
-1.04205
-1.09027
-1.24928
-1.18182
-1.06928
-0.765298
1.76413
1.77502
1.92643
1.83915
1.8805
1.83444
1.84565
-0.417272
-0.419364
0.0127211
-0.367689
-0.0793859
-0.410244
-0.358596
-1.4003
-1.30526
-1.10283
-1.22881
-1.17886
-1.54181
-1.49181
-1.20079
2.04832
2.16498
1.98907
2.04796
1.91966
2.00694
0.302143
0.721385
0.0737101
0.311356
-0.162418
0.136778
-1.10978
3.70694
4.03784
2.30037
2.37984
2.18116
2.29784
2.09234
2.19198
1.12607
1.43773
0.792211
1.12028
0.402596
0.78061
2.57015
3.13326
2.51963
2.60125
1.87605
2.07052
2.38368
2.71536
2.99703
2.74479
3.19511
2.62383
2.50987
2.38937
2.46843
2.28174
2.38076
1.89632
1.40411
1.51204
0.968307
1.33288
2.28367
2.91065
2.65478
2.61024
2.15155
2.19374
2.79106
2.65832
2.68661
2.66657
2.5687
2.58841
2.47026
2.57355
1.76304
2.01081
1.54136
1.74564
2.37757
2.62423
2.62523
2.62913
2.12078
2.33412
2.74806
2.6196
2.65944
2.60016
2.66264
1.80044
2.08781
2.5941
2.92943
2.83283
2.51414
2.54717
3.07685
3.01441
2.59548
2.49298
)
;

boundaryField
{
    movingWall
    {
        type            zeroGradient;
    }
    fixedWalls
    {
        type            zeroGradient;
    }
    frontAndBack
    {
        type            empty;
    }
    defaultFaces
    {
        type            empty;
    }
}


// ************************************************************************* //
