/*--------------------------------*- C++ -*----------------------------------*\
  =========                 |
  \\      /  F ield         | OpenFOAM: The Open Source CFD Toolbox
   \\    /   O peration     | Website:  https://openfoam.org
    \\  /    A nd           | Version:  8
     \\/     M anipulation  |
\*---------------------------------------------------------------------------*/
FoamFile
{
    version     2.0;
    format      ascii;
    class       surfaceScalarField;
    location    "0.006";
    object      phi;
}
// * * * * * * * * * * * * * * * * * * * * * * * * * * * * * * * * * * * * * //

dimensions      [0 3 -1 0 0 0 0];

internalField   nonuniform List<scalar> 
662
(
-1.53373e-05
1.14228e-05
3.91578e-06
1.4361e-05
-2.96983e-05
-6.26377e-05
2.75244e-05
4.65361e-05
-1.21791e-05
1.60949e-05
-0.000105231
5.69539e-05
7.71524e-06
-3.74135e-05
6.59906e-05
-5.06453e-05
-1.54519e-05
3.15468e-05
-0.000126
2.84844e-05
1.6543e-06
-3.90678e-05
1.14543e-06
-8.84105e-05
-2.70602e-06
8.99711e-05
-2.57471e-05
2.68925e-05
0.000112492
-6.19537e-05
4.02264e-05
-8.6796e-06
-0.000129364
5.01842e-06
-7.3701e-07
-3.83308e-05
8.99602e-07
-8.47381e-05
-4.57206e-06
-2.48475e-05
4.24346e-05
-2.20821e-06
0.000135279
-3.1466e-05
-0.000127482
-2.61916e-06
-2.26856e-06
-3.60623e-05
2.84094e-06
-7.47468e-05
-1.28322e-05
-2.20065e-05
4.24864e-05
-5.17884e-08
0.000139949
-6.87881e-06
-7.6297e-07
9.03114e-05
-9.0497e-05
9.48552e-07
2.63366e-05
-2.70996e-05
-0.000122506
-7.2442e-06
-2.9461e-05
-6.6013e-06
-1.65952e-05
-1.28658e-05
-1.19715e-05
-4.6237e-06
3.56194e-06
-6.40272e-05
-1.42816e-05
-1.84446e-05
-0.000134023
-0.000763638
0.000897661
4.56364e-05
-3.15003e-06
7.6947e-05
-3.13106e-05
-5.70764e-05
0.000141357
-1.45984e-06
-5.86442e-07
8.75371e-05
3.36071e-06
2.57501e-05
-0.000105446
-2.36614e-05
-6.8514e-05
-4.97978e-05
-3.3831e-05
-4.66546e-05
1.56589e-05
-2.02826e-05
2.38652e-06
-5.65072e-05
-9.90657e-06
-1.60581e-05
-0.00035267
0.000688592
-0.00109956
-0.000943247
0.00184091
0.000157732
-1.95247e-05
0.000240417
-0.000113995
-0.00016933
-2.76167e-06
7.75773e-05
1.27215e-05
2.29885e-05
-8.2212e-05
6.40399e-05
1.85575e-05
-3.88401e-05
-6.77307e-08
-2.25545e-07
-5.62139e-05
-1.61258e-05
0.00130327
-0.00155792
-9.65074e-05
0.00193742
-3.16557e-06
6.72441e-05
1.34987e-05
1.98229e-05
-0.000135322
7.16674e-05
-4.76142e-05
8.77412e-06
0.00152931
-0.000322551
0.00196703
-2.96097e-05
-2.22278e-06
5.71157e-05
1.23512e-05
1.76001e-05
-4.99025e-05
2.28827e-06
-0.000157673
3.11256e-05
0.00196585
1.17095e-06
0.00161398
-0.000114277
-5.43294e-06
2.83804e-05
3.41682e-05
1.21672e-05
-4.97451e-05
-1.5736e-07
-0.00016257
7.18456e-06
-4.14237e-07
-8.15242e-05
7.89354e-05
3.00306e-06
-2.3703e-05
2.32887e-05
0.00193687
2.89853e-05
0.00163732
-2.2173e-05
-0.0017947
0.000948236
0.000846464
-5.06711e-05
9.25967e-07
0.00189325
4.36242e-05
0.001858
3.5242e-05
6.33028e-05
0.000145877
0.000802359
8.39953e-05
6.18817e-05
3.33243e-05
-0.000163938
1.21059e-06
-3.23169e-07
-8.19852e-05
7.84222e-07
-2.40262e-05
0.00162104
4.52649e-05
-0.000191348
-7.95585e-06
4.27267e-05
0.000156577
-0.00131232
0.000760061
0.00139872
-0.000175237
1.22256e-05
0.00158167
8.29923e-05
0.00150376
0.000113153
0.000254747
0.000366263
0.00119616
0.000258653
0.000169491
0.00011674
1.42414e-07
-8.05704e-05
-1.55727e-06
-2.38838e-05
-0.000198664
-1.51639e-06
8.83259e-06
-5.8123e-05
5.01672e-05
4.72723e-07
-7.86421e-05
-2.40104e-06
-2.3411e-05
-0.000181125
5.20072e-06
-2.274e-05
-5.96393e-05
1.10826e-06
-7.07205e-05
-9.0298e-06
-2.23028e-05
-0.000156838
7.88922e-06
-3.21761e-05
-5.44385e-05
7.48959e-06
-3.90545e-05
-3.91557e-05
-1.48132e-05
-0.000140323
4.67715e-06
-2.11923e-05
-4.65493e-05
3.71317e-06
-1.97014e-05
-0.000124335
-4.18722e-05
-3.8159e-05
0.0003316
-0.000274646
-9.82309e-05
0.000144767
0.000233369
9.41217e-05
-0.000637762
0.000352457
0.000285304
-0.000357687
-0.000280074
-0.000454359
0.000251098
0.000203262
-0.000101902
-0.000505723
0.000148036
-8.30283e-05
-0.000422695
-0.000255962
0.000172933
0.000138705
-0.000413351
-0.000407296
0.000546001
-0.00068737
2.16084e-05
-0.000444303
-0.000665762
-0.000384866
-6.77322e-05
-0.000376571
-0.000258668
-0.0003264
-0.000266816
0.000360938
-0.000512553
0.000797858
-3.34472e-05
7.50197e-05
0.000722838
0.000326117
0.000298984
6.59595e-05
0.000260158
0.000291133
-8.78711e-05
0.000357092
-0.000335931
0.000248059
-0.000437833
-0.000289797
-0.000116864
2.68925e-05
0.000149232
-0.000534099
-0.000516529
-0.0008931
-0.00052908
-3.63437e-05
-0.000856757
-0.000330972
-0.000367316
-0.000157015
0.000455999
0.000565823
0.000825981
0.000424533
0.000156044
0.000669937
0.000275376
8.1716e-05
0.00043142
0.000130463
0.000117597
0.000212179
2.70996e-05
8.21521e-05
-0.000611232
-0.000774605
-0.000613852
1.9666e-05
-0.000794271
-0.000380148
-0.000360482
-0.000121421
0.000545954
0.000548516
0.000539075
0.000294608
0.000136812
0.000843124
0.000213128
0.000349939
1.43679e-06
-0.000615288
-0.000792834
-0.000622533
-0.000830773
3.79389e-05
-0.000533139
-0.000297633
-0.000374764
-0.000336825
0.000525398
1.36777e-05
0.000523938
0.000855084
-1.19597e-05
0.000868762
0.0003533
0.00034134
-0.000222716
-0.000399817
-0.000755855
-0.000611415
-0.00014444
-0.000423478
-0.000257532
-0.000353883
0.000263649
-0.00040809
-0.000472682
0.000175049
-0.000209033
-0.000346731
-0.000171683
0.000614991
-9.10535e-05
0.000595467
0.000920759
-5.19971e-05
0.000829705
0.000354062
0.000302064
0.000211252
-0.000314774
0.000103521
-0.000196837
-0.000454369
-9.39803e-05
-0.000220793
0.000233748
-0.000283546
-0.00018973
-0.000543613
3.67326e-05
-0.000580345
-0.000417637
-9.12968e-05
-0.000192249
-0.000137951
-7.39115e-05
-0.000272825
6.37921e-05
-0.000169303
-0.000171908
-0.000108116
-0.000112903
-5.64005e-05
-0.000206883
-9.35671e-05
-0.000113316
0.0012007
-0.00137003
0.00193938
-0.000738673
0.000839816
-0.000718105
0.000632339
-3.68726e-05
0.000518344
-0.00085169
-0.000553347
0.000516475
0.000877414
-4.77083e-05
0.000324066
0.000315563
0.000267855
0.000213879
-0.00106557
0.00108239
-0.000868506
0.000335836
-0.000429403
-0.000115042
-0.000302595
6.70145e-05
-0.000259264
0.000513331
-0.000815925
-0.000333175
-0.000295951
-0.000133452
-0.000261508
-0.00036293
6.69792e-05
1.25597e-05
-0.00037549
-0.000180456
7.23397e-05
-0.000236856
0.000350172
-0.000283193
-1.61258e-05
-0.00222093
0.00148226
-0.00113855
0.000764154
-0.000659146
-0.000479401
0.000441603
0.000810213
-0.000293738
-0.000255356
0.00043008
-0.000106014
0.000136342
0.000280206
0.000174192
0.00070805
-0.000137014
-0.000571035
-0.000307064
-0.000561442
-0.00096621
-0.00025816
0.00011072
-0.000366076
-0.000450722
-0.000555506
-0.00026042
-0.000688957
-0.000676397
-0.000521928
-0.000490802
-5.31512e-05
-0.000623246
-0.000337315
-3.81751e-05
-0.000390466
-0.000180969
-0.000102224
-0.000219144
-2.32887e-05
-0.00100589
0.000526489
-0.0011429
0.000968092
0.000853815
-0.000335599
-0.000807305
0.000618409
-0.000954008
0.000302911
-0.000166569
-6.31653e-05
0.000885828
-0.000267419
0.000314793
0.000202573
3.60038e-05
0.00040626
-9.14668e-05
0.0001481
0.000123913
-0.000187079
-0.000326809
-0.000178709
-0.00043559
0.000168171
-9.12905e-05
-0.000531956
-0.000582093
-0.000574908
-0.000294516
-9.59498e-05
-0.000826472
-0.000216141
-0.000312091
0.00012403
-0.000931335
0.000977845
0.000955672
-0.000563568
-0.00039044
-0.0014949
-0.000392863
-0.000783304
8.23392e-05
-4.63354e-05
-0.000104739
-0.000283448
0.000374915
-0.000206745
1.21672e-05
-5.01672e-05
-0.00061659
4.16817e-05
-0.000615379
-0.000801944
-2.45283e-05
-0.000760262
-0.000311307
-0.000335835
0.000924535
3.11369e-05
0.0009698
-0.00142804
-6.68594e-05
-0.00139691
-0.000774471
-0.00084133
0.0010369
0.00036182
0.00223306
-0.000608997
-6.38195e-06
-0.000596772
-0.000665735
-9.45267e-05
-0.000672117
-0.000337392
-0.000431919
0.000951166
1.86338e-05
0.00103416
-0.00154787
0.000150963
-0.00152924
-0.00086407
-0.000713108
0.000858798
-0.000604051
0.00122062
-0.000646161
4.93889e-05
-0.00052942
0.000959459
7.46998e-05
0.00107261
0.000468561
-0.00154866
0.00101924
-0.000853886
0.0020745
-0.00137917
0.000821209
0.000198035
0.000574049
-0.00052466
-0.000810569
0.000138451
-0.000236519
-0.00043432
-0.000295869
0.000909244
-0.000834544
-0.0016208
9.15611e-05
-0.000711552
-0.000745284
-0.000653723
-0.000648049
0.00111661
0.00142646
0.000762041
5.91673e-05
0.000237381
-0.00125452
0.000419979
-0.000137914
0.000370614
0.00105584
0.000568649
0.000254203
0.000314446
0.00031337
-0.00042781
0.00019129
-0.000190429
-0.000304899
-0.000113609
-0.000941689
0.000230137
-0.00052171
-0.000674915
-0.000444778
-0.000806745
0.000668831
0.000249098
-0.000310955
0.000120526
2.41554e-06
-0.000758024
0.000236314
-8.91937e-05
-0.000193818
0.000196234
0.000120628
0.000369725
-0.000152663
-3.21374e-05
-0.000464479
-0.000228165
-0.000390659
0.000162494
-8.61062e-05
5.39688e-05
0.000110127
-0.000479853
-1.48132e-05
3.8159e-05
)
;

boundaryField
{
    movingWall
    {
        type            calculated;
        value           uniform 0;
    }
    fixedWalls
    {
        type            calculated;
        value           uniform 0;
    }
    frontAndBack
    {
        type            empty;
        value           nonuniform List<scalar> 0();
    }
    defaultFaces
    {
        type            empty;
        value           nonuniform List<scalar> 0();
    }
}


// ************************************************************************* //
