/*--------------------------------*- C++ -*----------------------------------*\
  =========                 |
  \\      /  F ield         | OpenFOAM: The Open Source CFD Toolbox
   \\    /   O peration     | Website:  https://openfoam.org
    \\  /    A nd           | Version:  8
     \\/     M anipulation  |
\*---------------------------------------------------------------------------*/
FoamFile
{
    version     2.0;
    format      ascii;
    class       volScalarField;
    location    "0.02";
    object      p;
}
// * * * * * * * * * * * * * * * * * * * * * * * * * * * * * * * * * * * * * //

dimensions      [0 2 -2 0 0 0 0];

internalField   nonuniform List<scalar> 
656
(
1.84807e-07
-0.235338
1.72546
-0.783616
0.188995
1.72831
-1.14814
-1.55003
2.04969
1.71205
1.7716
-0.43519
0.385885
1.74503
2.02967
2.25557
1.64218
1.59295
2.26423
2.392
1.80907
1.82815
1.79337
1.82347
-0.0641447
0.615939
1.77196
2.01296
2.24755
1.8508
1.87363
2.56381
2.39635
2.38772
2.56206
2.70472
2.1641
2.18012
2.14487
1.7892
1.85875
0.284225
0.818507
1.80752
2.00325
2.24135
2.19428
2.20678
2.88161
2.70543
2.56564
2.38431
2.56025
2.70363
2.88179
3.05191
2.17082
2.18516
2.1967
2.12817
2.15538
1.82817
1.99797
2.23515
2.20694
2.21573
3.05137
2.88
2.70582
3.37005
2.3808
2.55806
2.7015
2.88036
3.05103
2.194
2.20409
2.20611
2.20577
1.98794
2.22589
2.20515
2.20468
3.63178
3.36634
3.0482
2.8779
3.36984
3.58133
4.83536
2.37382
2.55654
2.69775
2.88026
3.05154
2.10674
2.10218
2.10331
2.10529
2.10702
2.10827
5.40379
5.09619
3.67331
3.35468
3.04341
3.3753
3.54511
4.60401
5.01393
2.13434
2.11849
2.11017
2.10375
2.09756
2.0921
3.47405
5.84249
5.3222
3.70508
3.33854
3.40971
2.15861
2.14666
2.13574
2.12661
2.11854
2.11144
3.54854
3.55902
6.26173
5.5359
3.72286
3.54364
2.24964
2.23557
2.22347
2.21344
2.20459
2.19696
3.20217
3.5512
3.66005
6.70666
5.79132
3.20574
2.35111
2.3395
2.32813
2.31835
2.30992
2.30282
3.13749
3.20068
3.54845
3.77196
7.20251
3.1473
3.08852
2.43413
2.43506
2.42959
2.41921
2.40848
2.39942
3.08101
3.12826
3.19881
3.53826
3.85972
3.08178
2.49925
2.52724
2.52169
2.50647
3.07753
3.0731
3.11955
3.19472
3.52365
3.07979
3.17781
2.36369
2.35393
3.09026
3.07743
3.07223
3.06637
3.11014
3.18869
3.15135
3.18164
3.20026
3.09622
3.08943
3.07444
3.06786
3.05999
3.10108
3.13511
3.15318
3.18564
3.20111
3.31175
3.10097
3.09592
3.08827
3.07227
3.064
3.05421
3.12421
3.13533
3.15383
3.18845
3.21198
3.35419
3.103
3.10109
3.09579
3.08769
3.07054
3.06063
3.11774
3.12377
3.1351
3.15376
3.19015
3.22171
3.10229
3.10312
3.10134
3.09595
3.08736
3.06909
3.11388
3.11724
3.12323
3.13458
3.15348
3.19098
3.10415
3.10208
3.10325
3.10165
3.09621
3.08711
3.11525
3.11361
3.11669
3.12267
3.13399
3.1532
3.10637
3.10399
3.10196
3.10335
3.10196
3.09641
3.10953
3.11208
3.11549
3.11336
3.1162
3.12213
3.13351
3.10628
3.10379
3.1019
3.10343
3.10226
3.1096
3.11231
3.11564
3.11319
3.11574
3.12169
3.10618
3.10361
3.10186
3.10349
3.10966
3.11255
3.11572
3.11308
3.11533
3.10609
3.10345
3.10183
3.1097
3.11277
3.11577
3.11299
3.10601
3.1033
3.10974
3.11297
3.1158
3.10593
3.10977
3.11315
0.614808
0.920842
2.12896
2.05728
1.83689
1.80787
1.83709
1.37328
1.47605
1.26364
1.80802
1.85634
2.15495
2.15259
2.17709
2.17201
2.1168
2.09
2.02083
1.96521
1.74871
1.56827
1.91419
1.8426
1.99201
1.99635
1.88893
2.11957
2.12194
2.15307
2.16651
2.1755
2.13715
2.09323
2.1015
2.00554
1.94718
2.13566
2.22602
2.1136
2.36723
2.27602
2.14518
2.08533
4.48594
4.7155
3.35076
2.56072
2.46227
3.19805
3.0453
2.69807
2.66011
2.98904
2.88574
2.82904
2.15755
2.1311
2.14509
2.18945
2.23966
2.23405
2.22228
2.21588
2.27215
2.17125
2.45848
2.40051
2.29545
2.3109
3.98554
3.54968
3.47077
3.99746
3.81218
3.43964
3.29727
3.32855
3.18984
2.63882
2.54264
3.10444
2.9975
2.90877
2.83489
2.76044
2.16585
2.18522
2.20975
2.26961
2.29337
2.36281
2.38384
2.57786
2.43143
2.37748
2.66704
2.49749
2.43986
3.68277
3.5537
3.50215
3.53821
3.46279
3.38593
3.24725
3.19038
3.07422
2.98096
2.89921
2.76045
2.7191
2.25889
2.2754
2.29754
2.38845
2.40455
2.45621
2.49029
2.60768
2.55846
2.82251
2.74883
2.61154
2.55867
3.19798
3.33078
3.34339
3.3741
3.29599
3.21809
3.1307
3.0525
2.90541
2.99769
2.92709
2.36109
2.56978
2.40353
2.41441
2.46274
2.47309
2.53777
2.86469
2.70642
2.74932
2.89345
2.61338
2.72145
2.6963
2.89079
3.14189
3.16614
3.00384
2.97065
3.08202
3.03178
3.20374
3.25222
3.22802
3.01483
2.9913
3.18594
3.03969
3.05191
2.45216
2.63791
2.55713
2.61327
2.50097
2.50249
2.53497
2.7593
2.82671
2.87749
2.92645
2.69497
2.76615
2.72342
2.92418
2.98196
3.03569
3.03153
3.09152
3.13602
3.11742
3.06716
3.06597
3.08568
3.07713
3.09573
3.14197
3.05418
3.07618
3.0419
3.08819
3.08202
3.10336
3.08218
3.07807
3.08407
2.58222
2.4834
2.54994
2.65739
2.67569
2.55747
2.56827
2.65074
2.94758
2.80897
2.8482
2.69502
2.80987
2.98367
2.96644
3.03746
3.06537
3.09031
3.13048
3.13513
3.18846
3.2103
3.2106
3.184
3.1577
3.17729
3.1354
3.18944
3.17118
3.17533
3.13736
3.11441
3.10579
3.05971
3.10621
3.11113
3.13495
3.09828
3.08086
3.06822
3.07595
3.07388
3.0768
3.10084
3.22122
2.48556
2.38042
2.45674
2.59284
2.61901
2.69024
2.84962
2.83822
2.87442
3.10171
2.9987
3.00728
3.24852
3.15084
3.13002
3.28031
3.25601
3.33708
3.15695
3.12918
3.1587
3.14794
3.15018
3.08736
3.08872
3.12829
3.10678
3.11304
3.09125
3.07157
3.09773
3.10192
3.09302
3.09636
3.10596
3.34754
3.17026
3.06134
3.02008
3.02342
2.98057
2.79791
3.02339
3.29482
3.09487
3.09473
3.14077
3.12894
3.13688
3.12792
3.13538
3.09727
3.09638
3.12525
3.11494
3.10438
3.09667
3.1064
3.09318
3.49615
3.10076
3.10065
3.10045
3.10159
3.10221
3.10286
3.12645
3.11525
3.12547
3.12264
3.12474
3.10083
3.10781
3.10332
3.11432
3.11651
3.10273
3.10584
3.10301
3.10372
3.10267
3.10346
3.11923
3.11628
3.11793
3.11836
3.1176
3.10468
3.10718
3.11197
3.11028
3.11491
3.11405
3.10447
3.10555
3.10413
3.10481
3.11414
3.11425
3.11242
3.10783
3.11148
3.10952
3.11474
3.11358
3.10644
3.10777
3.10949
3.11191
3.11118
)
;

boundaryField
{
    movingWall
    {
        type            zeroGradient;
    }
    fixedWalls
    {
        type            zeroGradient;
    }
    frontAndBack
    {
        type            empty;
    }
    defaultFaces
    {
        type            empty;
    }
}


// ************************************************************************* //
