/*--------------------------------*- C++ -*----------------------------------*\
  =========                 |
  \\      /  F ield         | OpenFOAM: The Open Source CFD Toolbox
   \\    /   O peration     | Website:  https://openfoam.org
    \\  /    A nd           | Version:  8
     \\/     M anipulation  |
\*---------------------------------------------------------------------------*/
FoamFile
{
    version     2.0;
    format      ascii;
    class       volVectorField;
    location    "0.02";
    object      U;
}
// * * * * * * * * * * * * * * * * * * * * * * * * * * * * * * * * * * * * * //

dimensions      [0 1 -1 0 0 0 0];

internalField   nonuniform List<vector> 
424
(
(-0.00287826 -0.000166598 6.77957e-26)
(-0.0141134 0.000942214 0)
(-0.0126978 0.00268752 2.06224e-23)
(0.000154136 0.00308058 -1.11218e-24)
(-0.0454111 0.00495997 -2.49435e-23)
(-0.0221786 0.000825849 -3.38178e-23)
(-0.00290328 0.0133814 3.07531e-24)
(-0.000973996 0.0149121 -6.45983e-25)
(-0.0658847 0.0025188 -3.60512e-23)
(-0.0248391 0.000294233 3.10423e-23)
(-0.0677194 0.00218223 9.49198e-23)
(-0.0232244 0.000442145 0)
(-0.00500602 0.0481959 1.24206e-24)
(-0.000939289 0.0235259 0)
(-0.0714661 0.000561676 3.2953e-23)
(-0.0246755 -4.14158e-05 1.74828e-23)
(-0.0568706 0.00066595 0)
(-0.0189983 7.57536e-05 0)
(-0.000339879 0.0261115 0)
(-0.00259985 0.0701209 -2.81101e-23)
(-0.0705001 3.72001e-05 3.48947e-23)
(-0.0248569 -0.000336907 -1.87244e-23)
(-0.0551883 0.000233365 0)
(-0.0189742 5.55717e-05 0)
(1.28415e-05 0.0251185 1.31018e-23)
(-0.000202908 0.0749357 2.5367e-23)
(-0.00223542 0.0660413 -3.70255e-23)
(-0.00039703 0.0225812 -3.84071e-23)
(-0.0719985 -0.00034634 5.87131e-23)
(-0.0223319 -0.000826386 0)
(-0.0144711 -0.000946788 -1.31139e-22)
(-0.00298477 0.000190454 0)
(-0.0510916 -1.61145e-05 -1.05574e-22)
(-0.0174462 3.86365e-05 9.87232e-23)
(-0.0222455 0.0479087 6.84009e-23)
(0.000237533 0.0258039 0)
(0.000125976 0.0286528 -2.26759e-22)
(0.00336469 0.0626027 2.33602e-22)
(8.0112e-05 0.0717004 2.8014e-23)
(-0.000414084 0.0579321 3.92282e-24)
(-8.89031e-06 0.019352 -3.85047e-24)
(-0.0670138 -0.00248447 -1.05199e-22)
(-0.0469566 -0.00527456 1.32951e-22)
(-0.0136752 -0.00300527 0)
(0.000191685 -0.00329862 -2.95784e-22)
(-0.0476878 -0.000261549 3.47137e-22)
(-0.0156898 -3.25441e-05 0)
(-0.106151 0.152329 -1.89135e-22)
(0.809168 0.0278688 -5.03176e-23)
(-0.000681756 0.0749958 -1.62541e-23)
(-0.0058316 0.0836182 0)
(-0.00521393 0.164855 -3.61378e-24)
(-0.000237426 0.0558242 0)
(-4.37463e-05 0.0192597 0)
(-0.00387743 -0.0147155 5.9455e-23)
(-0.00122732 -0.0164356 2.58699e-22)
(-0.0512905 -0.000605495 0)
(-0.0169343 -0.000147928 0)
(0.405264 0.118625 1.4187e-22)
(0.860799 -0.00379071 -1.20038e-23)
(0.000141239 0.052523 -9.30078e-23)
(-9.1995e-06 0.0181228 8.81613e-23)
(-0.00645855 -0.052156 0)
(-0.00101556 -0.0257798 0)
(0.549358 0.0127319 1.57541e-22)
(0.881744 -0.00215148 0)
(0.000385446 0.0498049 -8.00614e-23)
(9.5489e-05 0.0169354 7.36755e-23)
(-0.000331187 -0.0282276 6.02197e-23)
(-0.0029003 -0.0756639 -1.85829e-23)
(0.879693 -0.00128831 -1.37182e-23)
(0.623174 0.00200108 -1.16469e-22)
(-0.00232043 0.053851 0)
(-0.000216188 0.0203684 0)
(7.80954e-05 -0.0278331 4.72394e-23)
(-0.000373652 -0.080075 1.909e-23)
(-0.00181089 -0.0634634 -3.95785e-22)
(-0.000326005 -0.0216747 0)
(0.878142 -0.000318043 1.29599e-23)
(0.63373 -0.000746298 -4.96912e-23)
(0.826574 -0.0267724 0)
(0.000334716 -0.0277196 -9.09256e-23)
(0.880766 0.00140815 0)
(0.885779 0.00205163 0)
(0.865247 0.00377077 0)
(-0.0194989 -0.0490086 0)
(0.00357037 -0.0676306 -4.79774e-22)
(0.000152743 -0.029794 5.94482e-22)
(0.000292854 -0.0788187 4.36233e-23)
(-0.00053506 -0.0555951 0)
(-3.5124e-05 -0.0186042 0)
(0.636096 -0.000730244 -2.0791e-23)
(-0.107029 0.00183011 -4.18846e-23)
(0.446985 -0.115107 9.64396e-22)
(-0.000494996 -0.0804406 -8.9056e-23)
(0.638421 0.00129903 -1.23606e-22)
(0.640111 -0.00133619 2.57097e-22)
(0.567912 -0.0106942 -1.24143e-21)
(-0.108541 -0.1534 -1.80667e-22)
(-0.00656977 -0.177008 6.99858e-22)
(-0.00663031 -0.0871293 -5.68217e-22)
(5.19104e-05 -0.0552221 -3.09415e-23)
(3.39664e-05 -0.0190375 3.00069e-23)
(-0.0953003 3.9085e-05 0)
(-0.0412049 -5.67488e-05 -4.06952e-23)
(0.000378899 -0.0572439 -1.38333e-22)
(5.94717e-05 -0.0198094 -1.31522e-22)
(-0.0976296 -0.000323704 2.39011e-23)
(-0.0344965 1.35365e-06 0)
(-5.97624e-05 -0.0559399 9.95157e-23)
(8.5765e-05 -0.0193301 -9.48697e-23)
(-0.0911866 -0.00014107 -2.48027e-22)
(-0.0358103 -0.000112686 -2.2631e-23)
(-0.00305356 -0.0583702 0)
(-0.000238646 -0.0228145 0)
(-0.0841412 0.000318356 1.35574e-22)
(-0.033252 -6.74496e-05 0)
(-0.0954862 -0.00157883 0)
(-0.0299705 -5.48142e-06 1.21273e-22)
(-0.0356791 -0.000102707 0)
(-0.0761623 0.0162972 2.51589e-24)
(-0.022743 0.0113088 0)
(-0.060809 0.0335939 0)
(-0.0115898 0.0238859 -1.75579e-24)
(-0.124115 0.102355 2.62329e-23)
(-0.150516 0.0708955 4.71739e-22)
(-0.0827259 0.130282 3.64094e-23)
(-0.102875 0.111661 -1.25546e-23)
(-0.147735 0.0598707 -7.93866e-22)
(-0.152327 0.0357561 -2.60627e-23)
(-0.130839 0.0273649 -7.12281e-22)
(-0.117128 0.0275092 -1.9196e-22)
(-0.139347 0.0455048 -6.3493e-22)
(-0.158293 0.0488564 8.291e-22)
(-0.165211 0.0233399 -5.95079e-22)
(-0.171968 0.0258043 1.07271e-22)
(-0.107001 0.00640669 1.80744e-22)
(-0.157766 0.00708338 1.23427e-21)
(-0.105053 0.00527034 2.59447e-22)
(-0.130305 0.00281279 3.37471e-22)
(-0.0350175 0.0615968 2.81909e-23)
(-0.0987136 0.107886 0)
(-0.0683114 0.0647638 -2.33356e-23)
(-0.0968915 0.0871673 0)
(-0.0701534 0.132412 5.43603e-23)
(-0.071795 0.141557 -1.39987e-22)
(-0.0183677 0.0824301 -4.84993e-25)
(-0.04796 0.157769 2.19213e-22)
(-0.066871 0.128406 -4.83661e-23)
(-0.0452293 0.150838 2.84873e-22)
(-0.0591227 0.0999167 -6.25581e-23)
(-0.0937247 0.0886958 -2.7263e-23)
(-0.104546 0.0636334 0)
(-0.0914607 0.0345575 1.21613e-22)
(-0.0224358 0.00234045 -2.95699e-22)
(-0.0630039 0.0135685 3.41151e-22)
(-0.153079 0.00842676 0)
(-0.171025 0.00879325 0)
(-0.179359 0.00217993 -8.56475e-22)
(-0.119349 0.000707781 -1.5417e-21)
(-0.173277 0.0021951 2.79017e-21)
(-0.0981101 0.00148686 7.05327e-22)
(-0.138121 -0.000246838 7.37835e-22)
(-0.0332479 0.125282 -2.43958e-23)
(-0.0422574 0.146104 2.37636e-23)
(-0.0324762 0.169787 -2.3498e-22)
(-0.00613153 0.113001 7.82538e-22)
(-0.0197068 0.174304 1.16329e-22)
(-0.0249379 0.144443 4.88929e-23)
(-0.0142044 0.160651 -2.99101e-22)
(-0.0322392 0.0857381 1.72498e-22)
(-0.0197889 0.126266 -1.16202e-21)
(-0.0138322 0.061894 0)
(-0.00236214 0.0220821 0)
(-0.16251 -0.000901662 8.72662e-22)
(-0.178629 -0.000200422 -2.60309e-21)
(-0.12195 0.000677037 -9.18628e-22)
(-0.170578 0.00012317 2.91021e-21)
(-0.0960196 -4.37439e-05 -1.15326e-21)
(-0.138887 -0.000442365 1.43661e-21)
(-0.00522627 0.157018 -6.99835e-22)
(-0.0063696 0.174486 5.23686e-22)
(0.00111289 0.122919 0)
(-0.00471739 0.152985 0)
(-0.00169057 0.179007 -1.05544e-21)
(-0.00381682 0.0993242 7.93704e-22)
(-0.000384006 0.12771 0)
(-0.162345 0.00198258 8.73123e-22)
(-0.176742 0.00121039 1.98848e-22)
(-0.125683 0.00066098 1.25913e-21)
(-0.169871 -0.00162484 -1.91358e-21)
(-0.175222 -0.00326294 -2.01442e-21)
(-0.09242 -0.000683041 -2.26677e-21)
(-0.130561 -0.000626723 9.84425e-22)
(0.00354958 0.160928 7.68496e-22)
(0.000852229 0.117495 -8.13767e-22)
(-0.000455798 0.173387 2.56083e-21)
(0.00220615 0.178912 -1.97901e-21)
(-0.000661001 0.100857 0)
(0.000598447 0.139505 0)
(-0.154601 -0.00608218 -1.44855e-21)
(-0.173136 -0.00853959 0)
(-0.171921 -0.0262666 1.76453e-21)
(-0.10908 -0.00624776 1.05594e-21)
(-0.162195 -0.0338979 -1.96541e-21)
(-0.163475 -0.0314306 -3.24531e-21)
(-0.148011 -0.00711721 1.95918e-21)
(-0.154133 -0.0231776 1.7904e-21)
(-0.0916724 -0.000747508 -2.94502e-22)
(-0.117636 0.000377493 0)
(-0.000414551 0.160799 -4.28821e-22)
(-0.00389124 0.126825 0)
(0.00102217 0.172085 0)
(-0.000319544 0.177278 3.28055e-22)
(-5.223e-05 0.0951141 0)
(0.00164373 0.137998 0)
(-0.142228 -0.0626212 0)
(-0.154445 -0.0555545 -2.16055e-21)
(-0.154547 -0.0593668 2.91839e-21)
(-0.12875 -0.083494 0)
(-0.0751217 -0.0155495 0)
(-0.121497 -0.0264544 -1.21819e-21)
(-0.139563 -0.0335957 -2.28177e-21)
(-0.127758 -0.0658434 2.80203e-21)
(-0.139334 -0.0782881 -1.47807e-22)
(-0.0618103 -0.0323172 -7.01666e-22)
(-0.0239195 -0.0113987 0)
(-0.0131664 -0.0247097 2.14809e-21)
(-0.130938 -0.0320552 7.39049e-22)
(-0.135 -0.0543425 -1.83614e-21)
(-0.0835574 -0.00143028 -1.30325e-21)
(-0.113545 -0.0256347 1.86232e-21)
(-0.112762 -0.0690513 8.61904e-22)
(-0.116111 -0.0846736 0)
(-0.100169 -0.097956 1.57243e-21)
(-0.0311472 0.231097 3.18906e-24)
(-0.130104 0.296585 -2.99016e-21)
(-0.141817 0.222912 3.13553e-21)
(0.117644 0.186197 -2.52819e-21)
(-0.0157259 0.164192 1.44208e-21)
(-0.018144 0.133937 -1.74612e-21)
(-0.0496899 0.201833 -8.93518e-22)
(-0.0170759 0.175246 -3.08224e-21)
(0.000744136 0.168637 -7.91385e-22)
(-0.00788411 0.172678 3.19388e-21)
(0.00108391 0.0904126 0)
(0.00215587 0.128622 2.90972e-22)
(-0.0648601 0.192489 4.2378e-21)
(-0.103978 0.186513 -1.32105e-21)
(-0.103003 -0.114067 4.15006e-21)
(-0.122828 -0.1001 2.47586e-21)
(-0.12043 -0.102038 -3.32917e-21)
(-0.0735833 -0.0590436 5.32574e-22)
(-0.0919599 -0.115006 0)
(-0.097299 -0.0823754 2.47747e-22)
(-0.0364237 -0.0601062 -3.00246e-21)
(-0.0812198 -0.135153 -5.84108e-21)
(-0.0215766 -0.0848102 0)
(-0.0669912 -0.136125 2.0507e-21)
(-0.0476643 -0.152926 0)
(-0.076015 -0.0264049 3.1846e-21)
(-0.0922003 -0.0596237 0)
(-0.0578964 -0.101942 -4.67281e-21)
(-0.0829111 -0.0909864 1.13923e-21)
(-0.0166824 -0.00139074 1.36448e-21)
(-0.048913 -0.00911199 -5.48335e-21)
(-0.109208 0.235076 -5.34992e-22)
(-0.132896 0.198044 0)
(0.00702755 0.193138 1.97413e-21)
(-0.141656 0.105404 -1.29822e-21)
(0.261049 0.0563968 9.61837e-22)
(-0.0282364 0.171783 2.02008e-21)
(-0.0505323 0.170365 -2.27563e-21)
(-0.00874575 0.143339 -1.6723e-21)
(-0.0194331 0.145748 2.88665e-21)
(0.000786257 0.0878055 1.34877e-21)
(-0.00642518 0.113115 -8.92136e-22)
(-0.162377 0.0165062 0)
(-0.113004 0.120083 -1.92006e-21)
(-0.145622 0.0837744 1.08054e-22)
(-0.152679 0.0446779 3.14943e-21)
(-0.0558135 0.130924 -1.23116e-21)
(-0.0891243 0.107771 1.19946e-21)
(-0.0604394 -0.140503 2.24925e-22)
(-0.0601085 -0.154982 5.05427e-22)
(-0.045177 -0.164984 0)
(-0.0359054 -0.121833 -2.8399e-22)
(-0.00824264 -0.123689 1.90278e-23)
(-0.0269326 -0.170294 -3.5846e-21)
(-0.0294481 -0.148111 1.83433e-21)
(-0.0203254 -0.160043 -2.02808e-21)
(-0.0319011 -0.0890777 3.19363e-21)
(-0.0234251 -0.126621 -2.6546e-21)
(-0.0120912 -0.058706 0)
(-0.00210714 -0.0206133 0)
(-0.0600771 0.0555921 -4.56215e-22)
(-0.122256 0.0254312 1.64222e-21)
(0.0992848 0.0591263 -6.73155e-22)
(0.370045 0.0173168 1.68295e-21)
(-0.131723 0.0154411 0)
(-0.180167 0.00979997 0)
(-0.0175762 0.112727 -2.09321e-21)
(-0.035392 0.107981 0)
(-0.169952 -0.00581569 0)
(-0.167456 1.77816e-05 0)
(-0.00703567 0.08225 0)
(-0.00703127 0.0921242 -9.52065e-22)
(-0.128264 0.00233126 0)
(-0.126844 0.0298728 -3.18908e-21)
(-0.04644 0.0591894 0)
(-0.0860272 0.0631623 0)
(-0.100946 0.0362933 2.70137e-21)
(-0.155289 -0.011798 5.68056e-22)
(-0.0115515 -0.173594 2.51023e-21)
(-0.0109387 -0.159621 0)
(0.000233437 -0.129169 -4.01641e-23)
(-0.0069471 -0.152198 0)
(-0.00336629 -0.177484 0)
(-0.00434018 -0.0980409 -3.51189e-21)
(-0.00267008 -0.126517 3.20404e-21)
(-0.0528482 0.0165468 0)
(0.117068 0.0121304 -1.39586e-21)
(0.369954 0.00259194 0)
(-0.189712 0.00407491 -4.70042e-22)
(-0.161952 0.00881644 1.3307e-23)
(-0.146497 0.00526917 -2.51319e-22)
(-0.178248 0.00596166 1.30947e-22)
(-0.00533623 0.0283253 5.49635e-21)
(-0.0343107 0.0222634 -1.03188e-21)
(-0.0727138 0.00906942 -2.12397e-21)
(-0.0855056 -0.0154282 0)
(-0.0862751 -0.00600626 0)
(0.000229117 0.00847243 1.7277e-21)
(-0.000415344 0.0210613 -6.5225e-21)
(-0.0656113 -0.00600414 0)
(0.00192684 -0.166683 -5.43751e-22)
(0.00038582 -0.128952 3.98164e-23)
(-0.00168976 -0.171241 -4.62592e-21)
(0.00114819 -0.178453 4.30279e-21)
(-0.00141227 -0.0957656 0)
(0.000248138 -0.13684 -5.35168e-22)
(0.0910569 -0.00257192 0)
(0.357734 -0.00154607 0)
(-0.175381 -0.001787 4.23156e-22)
(-0.101833 -0.002048 -3.61946e-22)
(-0.152454 0.000230007 3.32748e-22)
(-0.188411 0.0067586 -5.53089e-22)
(-0.0252048 -0.000931365 0)
(0.130007 -0.185774 -5.75769e-21)
(-0.150831 -0.225715 9.81709e-21)
(-0.000487959 -0.16471 1.67147e-22)
(-0.00336157 -0.131277 0)
(0.000966156 -0.170838 3.94667e-21)
(-0.000538892 -0.177335 -2.87674e-21)
(0.00060616 -0.0931318 0)
(0.00233837 -0.141756 -1.028e-21)
(0.082946 -0.000273078 -3.83422e-23)
(0.351939 -0.0033143 -2.0922e-21)
(-0.197428 -0.00310344 -2.13444e-21)
(-0.110768 -0.000357099 -6.22393e-22)
(-0.155534 0.00166704 5.29542e-22)
(-0.196138 -0.00175639 0)
(0.263787 -0.0524614 -6.95657e-21)
(0.0231168 -0.164908 -6.40104e-21)
(-0.0151979 -0.165335 0)
(-0.0195533 -0.138078 0)
(0.123667 -0.008155 -3.06065e-21)
(0.377828 -0.0154293 2.60624e-21)
(0.122898 -0.0579968 1.15747e-20)
(-0.0556842 -0.206121 0)
(-0.115926 -0.216427 9.1849e-21)
(-0.0360105 -0.246429 1.60041e-21)
(-0.149434 -0.302862 -2.59331e-21)
(-0.0685495 -0.187898 -1.39731e-23)
(-0.015593 -0.174796 -3.83596e-21)
(0.000249498 -0.169752 1.6493e-21)
(-0.00641144 -0.172321 6.0702e-21)
(0.00115827 -0.102389 -3.64333e-21)
(0.00022726 -0.138956 2.36569e-21)
(-0.056496 -0.0136923 2.45064e-21)
(-0.177649 0.00258244 3.72411e-21)
(-0.173295 -0.00575827 -3.36637e-21)
(-0.147489 7.42246e-05 2.47989e-22)
(-0.179878 -0.00018061 0)
(-0.0688668 -0.0636593 -3.84202e-21)
(-0.152653 -0.16923 -2.62697e-21)
(-0.0461986 -0.167589 -6.38443e-21)
(-0.0279139 -0.168784 7.54931e-22)
(-0.134747 -0.0140525 0)
(-0.122884 -0.0265299 -9.95513e-22)
(-0.134935 -0.168022 -6.73846e-21)
(-0.0922305 -0.171503 8.69525e-21)
(-0.0766064 -0.124276 6.38784e-21)
(-0.0533694 -0.132871 0)
(-0.00773574 -0.136985 0)
(-0.0183039 -0.140743 -2.50987e-21)
(-0.00136571 -0.0953782 0)
(-0.0076046 -0.116549 0)
(-0.193302 0.000311703 2.81386e-21)
(-0.184264 -0.00443225 -5.42899e-21)
(-0.140098 0.00218728 -2.6111e-22)
(-0.173446 -0.00294895 -1.59176e-21)
(-0.161839 -0.0165985 5.15858e-21)
(-0.152919 -0.0694154 -4.45665e-21)
(-0.0196688 -0.111298 1.5059e-21)
(-0.0362304 -0.109764 3.62088e-21)
(-0.179492 0.005778 4.44969e-21)
(-0.161441 0.00445873 -1.78625e-22)
(-0.0456837 -0.0600383 -8.00058e-21)
(-0.080228 -0.073219 3.84987e-22)
(-0.113576 -0.0580563 1.41758e-21)
(-0.00747648 -0.0805083 0)
(-0.00901541 -0.0896407 -2.74812e-21)
(-0.140671 -0.00447246 -2.15535e-21)
(-0.162723 0.00899395 1.5296e-21)
(-0.0910427 0.0177268 1.42391e-21)
(-0.00773253 -0.025299 0)
(-0.0361592 -0.0178354 3.56016e-21)
(-0.106415 0.0130858 1.60167e-22)
(-0.0968101 -0.00615696 0)
(7.02945e-05 -0.00889541 0)
(-0.00157084 -0.0209831 0)
(-0.0631405 0.00705765 -3.73704e-21)
(-0.0232221 0.00118703 2.9412e-21)
)
;

boundaryField
{
    movingWall
    {
        type            fixedValue;
        value           uniform (1 0 0);
    }
    fixedWalls
    {
        type            noSlip;
    }
    frontAndBack
    {
        type            empty;
    }
    defaultFaces
    {
        type            empty;
    }
}


// ************************************************************************* //
