/*--------------------------------*- C++ -*----------------------------------*\
  =========                 |
  \\      /  F ield         | OpenFOAM: The Open Source CFD Toolbox
   \\    /   O peration     | Website:  https://openfoam.org
    \\  /    A nd           | Version:  8
     \\/     M anipulation  |
\*---------------------------------------------------------------------------*/
FoamFile
{
    version     2.0;
    format      ascii;
    class       volVectorField;
    location    "0.091";
    object      U;
}
// * * * * * * * * * * * * * * * * * * * * * * * * * * * * * * * * * * * * * //

dimensions      [0 1 -1 0 0 0 0];

internalField   nonuniform List<vector> 
656
(
(0.743372 0.0565316 -9.65472e-25)
(0.927889 0.0140691 1.86666e-24)
(0.954788 -0.00127375 0)
(-0.0910749 0.118994 2.40002e-23)
(0.556742 0.0977245 1.12098e-23)
(0.841242 0.000939743 0)
(-0.0571798 0.0672276 -4.939e-23)
(-0.0145962 0.018846 9.85106e-24)
(0.968227 -0.000150839 0)
(-0.000504671 0.138601 -2.37829e-24)
(-0.00304961 0.193131 -7.83496e-23)
(-0.117738 0.172053 0)
(0.376006 0.139834 1.00526e-23)
(0.715019 0.00930684 0)
(0.890989 0.00127448 -1.70667e-22)
(0.906567 0.000583101 4.77898e-23)
(0.00104041 0.0823432 9.70486e-24)
(0.00137427 0.0267217 0)
(0.971852 -7.63387e-05 -3.43357e-23)
(0.913662 0.000298557 -1.43719e-22)
(-0.0123884 0.0928732 7.71106e-23)
(-0.00523409 0.0628721 0)
(-0.0239222 0.125114 1.33361e-24)
(-0.00789616 0.242543 1.53982e-22)
(-0.136115 0.223437 -1.67658e-22)
(0.210343 0.18042 -2.26587e-23)
(0.577674 0.0245875 0)
(0.8007 0.00637692 2.66449e-22)
(0.829494 0.00303221 -8.91623e-23)
(-0.00144234 0.0356645 0)
(-0.000151563 0.0114448 0)
(0.916986 0.000158363 5.13466e-23)
(0.973373 -4.69464e-05 -3.66607e-23)
(0.842959 0.00161742 1.95816e-22)
(0.849424 0.000810482 -5.18089e-23)
(0.854031 6.3497e-05 -1.08889e-22)
(-0.00677975 0.0608904 -1.05381e-22)
(-0.00280707 0.0409242 1.7071e-23)
(-0.0137926 0.0825097 -1.88325e-22)
(-0.0408484 0.158564 -1.577e-22)
(-0.01671 0.28282 1.66501e-22)
(-0.143742 0.269547 -4.77715e-24)
(0.0686489 0.217917 4.55154e-22)
(0.433182 0.0474137 0)
(0.696558 0.0162323 0)
(0.739381 0.00802648 -3.6982e-22)
(-0.000821629 0.0230279 -5.40252e-24)
(-0.000128818 0.00732298 0)
(0.854943 -0.000883154 1.20144e-22)
(0.919453 2.8456e-05 -2.78104e-23)
(0.974008 -2.02055e-05 4.92918e-24)
(0.75977 0.0043553 0)
(0.769764 0.00218548 0)
(0.776842 0.000152022 -1.06666e-22)
(0.778387 -0.00237205 4.59706e-22)
(0.763627 -0.00604322 0)
(-0.0103745 0.0366041 2.00131e-22)
(-0.00502145 0.0257396 2.95145e-22)
(-0.00202819 0.0165171 -2.87513e-22)
(-0.0250269 0.104803 -1.85263e-22)
(-0.0193443 0.0489367 5.84787e-22)
(0.28681 0.0796721 -1.32799e-22)
(0.57847 0.0319868 1.75137e-22)
(0.635201 0.0165802 -5.20767e-22)
(-0.000553535 0.00884742 4.53702e-23)
(-6.70888e-05 0.00256179 6.0905e-23)
(0.84486 -0.00224246 -2.5466e-22)
(0.92 -0.00014638 8.54502e-23)
(0.974687 1.2904e-05 5.47827e-24)
(0.726768 -0.015198 -1.16792e-23)
(0.662692 0.00911923 0)
(0.676457 0.00466454 1.93316e-22)
(0.686386 0.000386423 2.04132e-22)
(0.68897 -0.00481305 -8.82331e-22)
(0.669711 -0.0125431 2.27279e-22)
(-0.00839881 0.0139349 8.88421e-22)
(-0.00405364 0.00913811 -6.8345e-24)
(-0.00182771 0.00550513 0)
(-0.000643611 0.00295304 1.0577e-22)
(0.447786 0.0558281 0)
(0.516952 0.0303682 6.66113e-22)
(-8.94478e-05 0.00127332 -1.00135e-22)
(5.53251e-05 0.00024139 -3.08628e-23)
(0.604786 -0.0240906 4.71813e-22)
(0.820259 -0.00592585 1.49694e-22)
(0.914484 -0.000374944 0)
(0.97503 4.19892e-05 -5.28356e-23)
(0.619973 -0.030231 -2.88771e-22)
(0.468209 -0.0472383 7.26193e-22)
(0.251479 -0.190757 -8.79081e-22)
(0.550825 0.0170804 0)
(0.568151 0.00874877 4.66271e-23)
(0.581239 0.000992565 -1.45194e-22)
(0.58554 -0.00871515 5.11886e-22)
(0.562579 -0.0231808 -8.69611e-22)
(-0.0147911 0.00626419 3.73776e-22)
(-0.00924714 0.0030667 -3.98853e-22)
(-0.00537224 0.00139791 -1.97735e-22)
(-0.00279646 0.000480315 3.91348e-22)
(-0.00116583 4.38414e-05 4.713e-23)
(-0.000203189 -6.20621e-05 -2.84976e-23)
(-0.136728 -0.250241 5.90066e-23)
(0.411944 -0.147966 -6.13836e-23)
(0.732778 -0.0090164 -7.95845e-22)
(0.901186 -0.00112448 0)
(0.973747 0.000109573 0)
(0.499721 -0.0539485 5.52146e-22)
(0.325512 -0.0810144 -2.7733e-22)
(0.106283 -0.230036 1.02582e-22)
(-0.141409 -0.298198 1.38428e-21)
(-0.0465803 0.0112551 0)
(-0.0340209 0.00583954 1.86863e-22)
(-0.0235914 0.00285792 -6.59976e-22)
(-0.0149878 0.00114531 1.84041e-22)
(-0.0079271 0.000287612 -4.38527e-23)
(-0.00212802 2.17917e-05 -2.72268e-23)
(-0.00754387 -0.28903 0)
(-0.120665 -0.194926 0)
(0.582914 -0.103403 4.88166e-22)
(0.850386 -0.000878694 -3.99584e-23)
(0.970606 0.000203289 -1.0304e-22)
(-0.015557 -0.33292 -1.64648e-21)
(-0.0760016 0.0100106 0)
(-0.0568623 0.00552753 1.9315e-22)
(-0.0403702 0.00276358 -1.41144e-24)
(-0.0262671 0.00117179 9.54886e-23)
(-0.0142712 0.000360379 -4.48734e-23)
(-0.0041164 7.18023e-05 0)
(-0.0276219 -0.164275 -5.51166e-22)
(-0.00296274 -0.233229 0)
(-0.094997 -0.136206 5.08316e-22)
(0.75789 -0.0597746 0)
(0.956555 0.00135216 7.64116e-23)
(-0.0466779 -0.205096 0)
(-0.0980845 0.00828977 0)
(-0.0741665 0.00460898 1.20078e-22)
(-0.0531752 0.00234379 -3.48152e-22)
(-0.0349417 0.0010281 1.12646e-22)
(-0.0192397 0.000345412 5.03483e-23)
(-0.00578431 8.89844e-05 -1.68739e-23)
(-0.015655 -0.119027 2.82625e-22)
(-0.0145372 -0.123352 0)
(-0.000248173 -0.169217 -4.45518e-22)
(-0.0605237 -0.0776122 4.30418e-22)
(0.931395 -0.0147218 0)
(-0.0284336 -0.148594 0)
(-0.107005 0.0072421 1.53155e-22)
(-0.0810006 0.00408767 -1.47862e-22)
(-0.0581645 0.00207795 1.43073e-22)
(-0.038291 0.00090599 -2.73887e-22)
(-0.0211551 0.000304643 3.76654e-22)
(-0.00650422 7.86169e-05 -5.02185e-23)
(-0.0133573 -0.0678607 2.43769e-22)
(-0.0077182 -0.0890986 -5.22016e-22)
(-0.00596345 -0.0840666 1.52074e-22)
(0.00181256 -0.100771 -4.6198e-22)
(-0.014189 -0.0214027 1.30993e-23)
(-0.024115 -0.0868534 0)
(-0.0154616 -0.0452164 -5.49846e-23)
(-0.107963 0.00780887 -1.88582e-22)
(-0.0816242 0.00492889 7.60119e-22)
(-0.0586939 0.00264439 -7.25764e-22)
(-0.0387754 0.00113991 0)
(-0.0215135 0.000351542 0)
(-0.00671227 7.27361e-05 -5.509e-24)
(-0.0084944 -0.0350824 1.17253e-22)
(-0.00666786 -0.0497936 3.44446e-24)
(-0.00302972 -0.0605436 3.97954e-22)
(-0.00125803 -0.0475668 -1.49542e-22)
(0.00233743 -0.0310267 0)
(-0.00873856 -0.019631 8.91155e-22)
(-0.0632762 0.00409151 8.29101e-22)
(-0.0414413 0.00257071 -8.57305e-22)
(-0.0227754 0.000908326 0)
(-0.00700819 0.000157904 -7.76625e-24)
(-0.00480663 -0.0146294 -2.36315e-22)
(-0.00418803 -0.0254854 -9.16752e-23)
(-0.00273024 -0.0332934 1.89004e-22)
(-0.000643012 -0.0342512 -1.29325e-22)
(0.000182382 -0.0143651 4.94292e-23)
(-0.00447449 -0.00526444 0)
(-0.00270604 0.00320094 -1.02406e-21)
(-0.0505274 0.00118008 0)
(-0.0176845 0.00039382 -2.71407e-23)
(-0.00152204 0.000804181 0)
(-0.00238152 -0.00358814 -2.40559e-22)
(-0.00234517 -0.0102341 -4.59275e-22)
(-0.00172136 -0.0168633 -6.24874e-23)
(-0.000724384 -0.0186276 1.27155e-22)
(7.65244e-05 -0.0106534 -4.96195e-23)
(-0.00108023 -0.000901947 2.08811e-21)
(-0.00130627 0.00154795 2.17906e-21)
(-0.00310785 0.00369386 7.02071e-23)
(-0.000132304 0.00198941 -4.81421e-22)
(-0.000749145 0.0010483 -9.82502e-25)
(-0.0011184 -0.00225132 1.24587e-22)
(-0.000958374 -0.00653691 3.71986e-22)
(-0.000484008 -0.00935169 7.62147e-24)
(-6.56822e-05 -0.00583937 -2.27909e-23)
(-0.000147394 -0.00257546 -1.88363e-24)
(-0.000453305 -0.00141138 -1.74693e-21)
(-0.00054769 0.0006789 -5.26919e-22)
(-0.00136141 0.00157882 0)
(-0.00319374 0.00914412 1.51722e-21)
(0.000389208 0.00151001 -2.58748e-22)
(-4.01012e-06 0.00176497 2.56504e-22)
(-0.000314491 0.00105888 1.28438e-22)
(-0.00044022 -0.00126606 0)
(-0.000272128 -0.00350614 -1.2192e-22)
(-6.47751e-05 -0.00293408 1.71268e-23)
(0.00022981 -0.00282412 8.27434e-22)
(1.29942e-05 -0.00241838 3.33751e-22)
(-0.000162183 -0.00146221 1.96694e-22)
(-0.000173914 0.000193289 5.36033e-23)
(-0.000334944 0.000545848 -6.14604e-23)
(-0.000459816 0.00212032 1.0924e-21)
(0.000310239 0.000534767 1.08136e-21)
(0.000248386 0.00126933 -4.0476e-22)
(2.98064e-05 0.0014327 -2.63976e-22)
(-0.000107178 0.000883853 -1.28486e-22)
(-0.000115844 -0.00058415 0)
(-3.96765e-05 -0.00106225 -1.12742e-23)
(0.000527998 -0.00205865 0)
(0.00018502 -0.00240448 -2.86303e-22)
(4.71894e-05 -0.00200884 -9.86502e-22)
(-3.77023e-05 -0.0012145 3.2149e-22)
(-2.21854e-05 -2.83944e-05 -3.58209e-22)
(-1.24996e-05 1.19559e-05 9.65593e-24)
(0.000532058 0.000192054 -4.69797e-22)
(0.000171513 0.000398921 7.16204e-22)
(0.000139514 0.000980689 -6.92982e-22)
(2.76354e-05 0.00103604 1.32346e-22)
(-1.72683e-05 0.000583949 0)
(-1.10013e-05 -0.000141969 1.11475e-23)
(0.000388905 -0.000698787 0)
(0.000316793 -0.00169622 5.50365e-22)
(0.000115032 -0.00187529 7.1644e-22)
(3.7817e-05 -0.00146584 9.39679e-22)
(8.23633e-06 -0.000791216 -3.338e-22)
(9.77959e-06 -5.50492e-05 -2.20474e-23)
(0.00120541 0.000277307 -5.60813e-22)
(0.000378413 0.000104429 0)
(8.37067e-05 0.000273304 5.14328e-22)
(6.48692e-05 0.00067867 0)
(1.68364e-05 0.00061451 0)
(6.22749e-06 0.000211526 0)
(0.000718698 -0.000234857 6.27186e-22)
(0.000209882 -0.000524528 -5.69271e-22)
(0.000168862 -0.00128768 -5.60027e-22)
(5.82731e-05 -0.0013085 -4.18078e-22)
(2.38481e-05 -0.000872126 -4.34759e-22)
(1.31874e-05 -0.000279334 1.31222e-23)
(0.00168595 0.000145655 0)
(0.000961225 0.000159183 1.40554e-22)
(0.000249774 5.15516e-05 0)
(3.2339e-05 0.00016728 1.98728e-27)
(2.19692e-05 0.000385224 0)
(8.67162e-06 0.000196656 -8.98034e-23)
(0.00183417 -2.67062e-05 0)
(0.00156415 -0.000258258 -5.66059e-22)
(0.000522178 -0.000131922 -1.5799e-22)
(9.94265e-05 -0.000360115 2.91849e-22)
(7.56679e-05 -0.000877435 -4.14964e-22)
(2.45367e-05 -0.000750054 -1.31464e-22)
(1.22929e-05 -0.000280627 9.15686e-23)
(0.00135344 8.23578e-05 -1.88764e-23)
(0.000715499 8.24759e-05 -2.10202e-22)
(0.00014928 2.0035e-05 0)
(6.31723e-06 8.30113e-05 -1.0821e-22)
(5.517e-06 0.00011264 9.05926e-23)
(0.00147068 -1.80424e-05 2.09892e-24)
(0.00124725 -0.000151879 6.35707e-22)
(0.000352529 -6.60365e-05 -4.72318e-27)
(3.77778e-05 -0.00022116 1.3493e-25)
(2.4616e-05 -0.000490523 -2.65275e-22)
(9.49844e-06 -0.000226842 8.36337e-23)
(0.00101776 4.25591e-05 1.4857e-22)
(0.000483165 3.63785e-05 1.02542e-22)
(7.34182e-05 3.85847e-06 -1.26143e-22)
(-1.22135e-06 1.91392e-05 2.30053e-23)
(0.00110586 -1.07253e-05 2.0944e-24)
(0.000931253 -8.12785e-05 -1.40607e-22)
(0.000215844 -2.61372e-05 4.54169e-22)
(7.22503e-06 -0.000110372 -2.1277e-22)
(6.01129e-06 -0.000139089 3.4037e-26)
(0.000696114 1.89752e-05 0)
(0.000271384 1.19828e-05 1.13807e-22)
(1.73676e-05 -1.10287e-06 7.96668e-23)
(0.000756884 -5.78865e-06 0)
(0.000631524 -3.70982e-05 -2.057e-22)
(0.000108925 -5.34256e-06 3.95909e-22)
(-1.46378e-06 -2.55807e-05 4.39588e-23)
(0.000398326 6.50665e-06 -9.70975e-25)
(8.26812e-05 2.82887e-06 -1.43009e-22)
(0.000433624 -2.79682e-06 9.69712e-25)
(0.000356536 -1.29657e-05 -1.14033e-22)
(2.67351e-05 1.18706e-06 1.12934e-22)
(0.000128972 1.65484e-06 4.33798e-23)
(0.000140681 -1.23316e-06 0)
(0.0001095 -3.58837e-06 -1.09967e-23)
(-0.142805 0.304015 2.22384e-21)
(-0.0269627 0.258916 5.09922e-22)
(-0.0419225 0.128296 0)
(-0.0753956 0.189539 2.78623e-21)
(-0.0629118 0.19421 -2.94436e-21)
(-0.073022 0.268242 0)
(-0.0373497 0.311078 0)
(-0.0980452 0.353175 -1.02569e-21)
(-0.0849302 0.314173 0)
(-0.0388409 0.266567 -1.88531e-21)
(0.152159 0.126701 4.23773e-21)
(-0.0955074 0.278837 0)
(-0.0338099 0.0636954 -3.65697e-22)
(-0.0560702 0.10525 0)
(-0.0162072 0.0192656 -3.81809e-21)
(-0.0385986 0.0469828 3.90722e-21)
(-0.0831657 0.121715 -2.27027e-21)
(-0.114796 0.159415 0)
(-0.0954014 0.203483 0)
(-0.119101 0.24024 6.18362e-22)
(-0.10878 0.295516 0)
(-0.0974965 0.289536 1.95869e-21)
(-0.0152742 0.19448 2.36968e-21)
(0.0946772 0.155501 -5.71835e-21)
(0.302808 0.0912268 1.1234e-21)
(-0.149953 0.235269 -5.90024e-22)
(-0.140543 0.252469 0)
(-0.0215698 0.0120702 -3.15874e-21)
(-0.0491873 0.028652 8.65326e-22)
(-0.0607813 0.052156 7.20346e-22)
(-0.0913818 0.081873 2.30837e-21)
(-0.121538 0.0806729 -4.44499e-21)
(-0.167505 0.115469 -3.93327e-21)
(-0.159415 0.156947 -3.00645e-21)
(-0.184491 0.185495 5.63124e-21)
(-0.130934 0.208746 -1.64175e-21)
(-0.0600027 0.184083 -1.71406e-21)
(0.0433092 0.128478 0)
(0.387488 0.0504158 -5.74685e-21)
(0.190368 0.106437 0)
(0.423925 0.0298137 0)
(0.243698 0.0593232 4.83684e-21)
(-0.20681 0.172881 0)
(-0.178848 0.179871 0)
(-0.0108472 -0.277365 6.03709e-21)
(-0.146114 -0.33037 0)
(0.386543 -0.0835114 0)
(0.436602 0.0148337 -1.97023e-22)
(0.273596 0.0341752 0)
(0.26952 -0.094441 0)
(0.45653 -0.0376442 1.1832e-21)
(0.458428 0.00179146 3.69632e-21)
(0.296579 0.00855269 0)
(0.32002 -0.0442477 0)
(0.473854 -0.0152629 0)
(0.325095 -0.0149194 -3.75314e-21)
(-0.0639559 0.0225517 1.14952e-21)
(-0.0974188 0.0360227 -1.44531e-21)
(-0.120521 0.0485927 4.75467e-21)
(-0.173508 0.0548068 0)
(-0.202303 0.0851151 0)
(-0.231692 0.0954735 -3.1048e-21)
(-0.249597 0.120086 -2.36308e-21)
(-0.152318 0.139204 0)
(0.0674795 0.080419 3.34717e-21)
(-0.0352853 0.118035 0)
(0.151948 0.0435657 0)
(0.00479636 0.0682074 -3.61974e-21)
(-0.267033 0.106391 7.84727e-21)
(-0.228673 0.113314 -2.31886e-21)
(-0.0112096 -0.264236 -3.40716e-21)
(0.172354 -0.13773 7.67052e-21)
(0.147214 -0.156983 -6.00212e-21)
(-0.114827 -0.387007 1.70474e-21)
(-0.0771429 -0.329037 -3.71048e-21)
(-0.0361739 -0.360387 2.43751e-22)
(0.0477268 -0.183754 -6.36435e-21)
(0.0511351 -0.153934 2.08615e-21)
(0.14973 -0.110152 3.22715e-21)
(0.134003 0.0100571 0)
(0.0258891 0.0381275 0)
(0.0865142 -0.0943343 -3.55657e-21)
(0.189491 -0.0572681 0)
(0.101097 -0.0463002 -3.31618e-21)
(0.200537 -0.0211013 3.02412e-21)
(0.061536 -0.00977513 4.60933e-21)
(-0.0973006 0.0161603 1.65291e-21)
(-0.141108 0.0248624 0)
(-0.16821 0.034327 0)
(-0.213582 0.0401079 3.28341e-21)
(-0.245118 0.0588377 0)
(-0.274295 0.0598912 8.26241e-21)
(-0.294493 0.0759779 -7.06126e-21)
(-0.108257 0.0542708 0)
(-0.132025 0.0690203 -5.67658e-21)
(-0.222718 0.087409 1.15629e-20)
(-0.195122 0.0400581 0)
(-0.292502 0.0752975 -7.47357e-21)
(-0.306172 0.069141 -3.98623e-21)
(-0.0856967 -0.315049 0)
(-0.070539 -0.248577 7.72744e-21)
(-0.0719274 -0.243755 0)
(-0.0639323 -0.32305 -5.27585e-22)
(-0.0899588 -0.326035 4.14361e-22)
(-0.102162 -0.242421 -7.93624e-21)
(-0.0603389 -0.188507 -7.29073e-21)
(-0.0903605 -0.16264 9.69495e-21)
(-0.0371764 -0.116158 2.98966e-21)
(-0.103643 -0.0834654 -3.91714e-21)
(-0.050031 -0.0527866 0)
(-0.07722 -0.0178733 -3.18618e-21)
(-0.172126 0.0108962 0)
(-0.123471 0.0131841 0)
(-0.16778 0.0198123 -1.28101e-21)
(-0.198094 0.0256511 -5.01979e-21)
(-0.232519 0.032019 4.30489e-21)
(-0.261246 0.042699 -1.53211e-21)
(-0.279706 0.0448648 -1.96661e-21)
(-0.307511 0.0567944 6.22748e-21)
(-0.277592 0.0468815 -6.94644e-21)
(-0.30105 0.0619527 8.46946e-21)
(-0.264018 0.0155261 0)
(-0.298747 0.0397597 -1.19023e-21)
(-0.321167 0.0618833 0)
(-0.31436 0.0565663 0)
(-0.0467887 -0.174296 -1.23693e-20)
(-0.0894346 -0.248998 4.26681e-21)
(-0.10988 -0.258995 5.15499e-21)
(-0.121752 -0.288645 -7.1046e-22)
(-0.137726 -0.259308 6.5544e-22)
(-0.172232 -0.21003 -7.46635e-21)
(-0.174968 -0.170586 0)
(-0.195617 -0.112958 -9.32941e-21)
(-0.281276 0.0178946 -4.39168e-21)
(-0.237521 -0.0819601 6.78736e-21)
(-0.273983 -0.0184052 2.80128e-21)
(-0.135494 0.0115884 4.51752e-21)
(-0.294668 0.0530489 2.69733e-21)
(-0.173484 0.0179239 -3.22747e-21)
(-0.198936 0.0232819 -2.79434e-21)
(-0.226295 0.0312884 -6.05195e-21)
(-0.261506 0.0397394 1.35422e-21)
(-0.270897 0.0439438 -3.43183e-21)
(-0.294277 0.0460233 -2.6992e-21)
(-0.318237 0.0607716 6.72778e-22)
(-0.313225 0.0515541 1.23265e-21)
(-0.274838 0.0591641 4.81691e-21)
(-0.291151 0.0568442 1.99652e-21)
(-0.301956 0.0645244 -1.27921e-21)
(-0.294119 0.0611481 -1.91856e-21)
(-0.242412 0.0645933 -6.67711e-21)
(-0.0389573 -0.105085 0)
(-0.0625013 -0.16599 8.27743e-21)
(-0.183072 0.0661263 0)
(-0.221452 0.0555649 4.37741e-21)
(-0.120777 0.06154 8.4773e-21)
(-0.146576 0.0581721 -5.59777e-21)
(-0.0860443 -0.181449 0)
(-0.125147 -0.221313 -4.90037e-21)
(-0.162279 -0.198661 1.5002e-20)
(-0.219429 0.0286142 -5.83721e-21)
(-0.245523 0.0087453 4.6204e-21)
(-0.179571 -0.15731 -1.06991e-20)
(-0.23049 -0.0769405 1.13788e-22)
(-0.222385 -0.0475246 -9.42586e-21)
(-0.135738 0.0117713 0)
(-0.266245 0.0527999 0)
(-0.245171 0.0395973 2.5967e-22)
(-0.250755 0.0463448 -3.54415e-22)
(-0.169208 0.0200996 -5.02247e-21)
(-0.197277 0.0263326 5.34141e-21)
(-0.2157 0.0314423 4.634e-21)
(-0.284839 0.0701716 1.83082e-21)
(-0.276873 0.0697521 -4.16907e-22)
(-0.247389 0.0774329 3.63316e-21)
(-0.228233 0.0764828 1.32583e-21)
(-0.259228 0.0572884 -5.47572e-21)
(-0.264836 0.0719017 1.99899e-23)
(-0.271601 0.0638702 4.67546e-21)
(-0.201416 0.082117 2.29948e-21)
(-0.176505 0.0804308 -7.50234e-21)
(-0.119857 0.0731983 2.8829e-21)
(-0.145063 0.0806261 2.3815e-21)
(-0.095709 0.0709188 -3.36804e-21)
(-0.0575653 0.052446 0)
(-0.0759405 0.0589818 2.79832e-21)
(-0.0918706 0.0547543 -2.40034e-22)
(-0.0834274 0.0470398 0)
(-0.0249325 -0.054722 -4.19627e-21)
(-0.0490761 -0.0950163 4.10557e-21)
(-0.0595066 -0.102592 2.88711e-21)
(-0.0951231 -0.138298 0)
(-0.107707 0.0317544 1.0204e-20)
(-0.141141 0.03423 0)
(-0.168899 0.0188894 5.66236e-21)
(-0.121307 -0.116503 1.30633e-22)
(-0.152643 -0.0268253 1.53358e-21)
(-0.151436 -0.12433 -4.2194e-21)
(-0.17998 -0.0561368 8.46574e-21)
(-0.0139533 -0.0251674 -4.96204e-22)
(-0.0255736 -0.0430866 0)
(-0.126003 0.0107818 0)
(-0.0850569 0.00384013 -5.14551e-22)
(-0.102855 0.00502792 5.18697e-22)
(-0.223806 0.0441778 -3.00818e-21)
(-0.234484 0.0542643 2.64529e-21)
(-0.150076 0.0166043 0)
(-0.184906 0.0256343 -2.45617e-21)
(-0.201144 0.0351558 2.95873e-21)
(-0.199208 0.0864351 1.24116e-21)
(-0.239283 0.0767418 -2.0177e-21)
(-0.232765 0.0817425 -2.56042e-21)
(-0.218732 0.0602214 -3.409e-21)
(-0.219074 0.0716464 6.75997e-22)
(-0.176343 0.0843048 0)
(-0.148087 0.0843896 0)
(-0.134586 0.0828154 0)
(-0.10708 0.0793842 -2.97557e-21)
(-0.0874882 0.0727897 -1.67582e-21)
(-0.0674387 0.0661618 3.98958e-21)
(-0.0505253 0.0542446 0)
(-0.00780847 0.0145315 0)
(-0.00500045 0.00961348 -6.67879e-22)
(-0.0142649 0.0259845 3.59747e-21)
(-0.0228613 0.0350541 -3.1536e-21)
(-0.0363449 0.0471477 0)
(-0.0258685 0.0329095 -5.85684e-21)
(-0.0393747 0.0403156 3.755e-23)
(-0.0107528 0.0154361 0)
(-0.014698 0.0201795 -4.59986e-21)
(-0.00493257 0.00587285 0)
(-0.0416701 0.0354748 1.35514e-23)
(-0.0597474 0.0401242 2.05767e-23)
(-0.0589273 0.0304372 3.55591e-21)
(-0.0924801 0.0259535 -4.32545e-21)
(-0.0363811 -0.047947 8.81291e-21)
(-0.060458 -0.0669833 -1.85481e-20)
(-0.0882044 -0.0672176 3.9511e-21)
(-0.0877748 0.00901576 -2.28004e-21)
(-0.0965998 -0.0379675 8.37686e-21)
(-0.117177 -0.0226116 -5.88531e-21)
(-0.00690006 -0.00708596 0)
(-0.0130817 -0.0154606 0)
(-0.0161973 -0.0167654 -3.64655e-21)
(-0.032323 -0.02833 -5.33373e-21)
(-0.00421479 0.0068077 5.65155e-22)
(-0.117803 0.0104126 1.25357e-21)
(-0.0697792 0.000824313 0)
(-0.0874989 0.00282392 -1.09678e-21)
(-0.146699 0.0292964 1.49045e-21)
(-0.173554 0.0375346 -4.45781e-21)
(-0.18933 0.0550483 -8.1066e-23)
(-0.162315 0.0678496 4.04891e-21)
(-0.181565 0.0761261 -4.75263e-21)
(-0.169062 0.0815073 3.23332e-21)
(-0.0990759 0.0791459 -3.93071e-21)
(-0.128482 0.0781577 6.07468e-23)
(-0.125917 0.0828409 1.11158e-21)
(-0.0371322 0.0531461 4.04607e-21)
(-0.056622 0.0645354 -4.42163e-23)
(-0.0786208 0.0718132 1.95872e-21)
(-0.0111594 0.0273609 1.76765e-21)
(-0.0273567 0.0448941 -2.14115e-21)
(-0.00631037 0.0177606 -1.5888e-21)
(-0.0165701 0.0185403 5.23523e-21)
(-0.0262076 0.0239912 0)
(-0.0050409 0.00498536 4.11264e-21)
(-0.00739823 0.00750784 -7.26837e-21)
(-0.00222766 0.000334586 0)
(-0.00222399 0.000331474 0)
(-0.00450585 -0.0021549 -1.1554e-21)
(-0.0267823 0.0194262 5.2423e-21)
(-0.0413385 0.0217624 -1.58192e-23)
(-0.0412685 0.014247 -1.0782e-20)
(-0.063251 0.00757515 1.0884e-20)
(-0.0389587 -0.0179357 3.80771e-21)
(-0.0543279 -0.0178044 -3.09013e-21)
(-0.0479356 -0.00261623 -3.8081e-21)
(-0.00654781 -0.00306616 7.17178e-22)
(-0.0130975 -0.00712752 2.03319e-21)
(-0.0214452 -0.00661977 1.40881e-21)
(-0.0050709 0.0134529 -3.05322e-21)
(-0.0292685 0.0495632 0)
(-0.0616469 0.0639649 0)
(-0.0931566 0.0360269 3.94697e-21)
(-0.10884 0.0553772 -2.76841e-21)
(-0.101075 0.0672069 0)
(-0.022263 0.0025998 3.06212e-23)
(-0.0626338 0.014813 0)
(-0.0100259 0.0309588 -1.03653e-22)
(-0.000829204 0.00176158 -6.08664e-22)
(-0.000217472 0.0020488 2.99376e-21)
(-0.00929509 0.00687232 7.49977e-21)
(-0.0147095 0.0105715 0)
(-0.0015422 -0.000792463 -3.39873e-21)
(-0.00344552 0.000626247 -1.07878e-20)
(-0.000489334 -0.00230158 5.95606e-21)
(-0.00139589 0.00147398 4.21849e-22)
(-0.00537999 -0.000676504 0)
(-0.0158998 0.00597534 0)
(-0.0257747 0.00784386 0)
(-0.0282718 0.000492442 0)
(-0.00745344 -0.000584912 4.81293e-21)
(-0.0162938 -0.00291928 -4.11252e-21)
(-0.018575 0.000574274 0)
(-0.00132113 0.00993896 0)
(-0.000409807 0.00166605 2.7225e-21)
(0.000580153 0.00166832 -6.82893e-21)
(0.00065184 0.00195456 1.18869e-20)
(0.00063548 0.00178187 -7.18398e-21)
(0.000874889 0.00122654 -2.33877e-21)
(0.000468776 0.000635609 0)
(-0.00314228 -8.88141e-05 3.51874e-21)
(-0.00669393 0.00129194 0)
(0.000156556 -0.00293455 0)
(-0.000223365 -0.00243938 0)
(0.000225401 -0.00302242 -1.29477e-21)
(-0.000777997 0.00109903 2.23582e-21)
(-0.00308805 0.000834643 0)
(-0.00238799 0.000434772 6.76851e-21)
(-0.00463268 0.000682421 1.79024e-21)
(-0.00598572 0.00148011 -6.75079e-21)
(0.00116032 0.00146329 0)
(0.000773504 0.00130188 5.27914e-21)
(0.00124123 0.00107033 8.56216e-21)
(0.00149008 0.00125011 -9.71163e-21)
(0.000673634 0.00034557 -1.74315e-22)
(0.0012194 0.000655708 7.23279e-21)
(0.000782126 -0.00231926 1.45299e-21)
(0.000204448 -0.00132581 -1.08956e-21)
(0.000750311 -0.00229649 -8.36624e-21)
(0.00095416 -0.00268601 1.14318e-20)
(0.00119869 -0.00254149 0)
(0.00133512 0.00095322 -5.358e-21)
(0.000533748 0.000832187 -7.84286e-21)
(0.00172018 -5.59037e-06 1.1628e-20)
(0.00158773 -0.0010209 0)
(0.00107274 -0.0014785 0)
(0.000583643 -0.000820069 4.46027e-21)
(0.00197099 0.000841784 3.35733e-21)
(0.00209804 0.00079485 -5.95497e-21)
(0.00144448 0.000458163 -1.30425e-22)
(0.00190979 0.000597456 1.78977e-24)
(0.00158021 -0.00134373 0)
(0.00194993 -0.00163241 1.9505e-21)
(0.00220281 -0.0011039 -1.68503e-21)
(0.00255746 0.000271584 -4.16499e-24)
(0.00246077 -0.000551052 7.99863e-22)
(0.00247619 -0.000120475 6.32241e-21)
(0.000882589 -0.000391625 -5.91228e-21)
(0.00160528 -0.000761216 0)
(0.00201965 0.000251014 -8.83114e-21)
(0.00245034 0.000199223 4.21039e-21)
(0.00220578 -3.67578e-05 4.4837e-21)
(0.00189752 -0.000437585 0)
(0.00231378 -0.000458526 -4.91229e-21)
)
;

boundaryField
{
    movingWall
    {
        type            fixedValue;
        value           uniform (1 0 0);
    }
    fixedWalls
    {
        type            noSlip;
    }
    frontAndBack
    {
        type            empty;
    }
    defaultFaces
    {
        type            empty;
    }
}


// ************************************************************************* //
