/*--------------------------------*- C++ -*----------------------------------*\
  =========                 |
  \\      /  F ield         | OpenFOAM: The Open Source CFD Toolbox
   \\    /   O peration     | Website:  https://openfoam.org
    \\  /    A nd           | Version:  8
     \\/     M anipulation  |
\*---------------------------------------------------------------------------*/
FoamFile
{
    version     2.0;
    format      ascii;
    class       surfaceScalarField;
    location    "0.105";
    object      phi;
}
// * * * * * * * * * * * * * * * * * * * * * * * * * * * * * * * * * * * * * //

dimensions      [0 3 -1 0 0 0 0];

internalField   nonuniform List<scalar> 
1107
(
0.000315988
-0.000643388
0.000633494
-0.000306094
0.000616968
-0.00030098
-2.96871e-05
0.000646655
0.000304962
0.000538557
-0.000106654
-0.000736865
-0.000968717
0.000630291
-9.76567e-05
0.000701464
0.000286064
-5.36017e-05
-1.49161e-05
-3.72724e-05
0.000683927
-3.30526e-05
1.4348e-05
-8.79493e-05
0.000180751
-0.000148833
-6.49699e-05
0.000300272
-0.000856385
-0.00126768
0.000599238
-0.000207466
0.000740101
0.000760967
-9.67759e-05
4.17077e-05
0.000814912
-9.56523e-05
3.58124e-06
-4.28357e-05
-1.13353e-05
0.000725635
0.000853069
2.99217e-05
-6.80791e-05
6.44734e-05
-0.000126751
-8.65549e-05
2.51489e-05
-4.8625e-05
0.000227394
-0.000140758
-0.000213387
0.000277847
-0.000115422
0.000296552
-0.00087509
-0.0015106
0.000539473
-0.000366498
0.00075827
0.000828767
-0.000185442
0.000899231
-0.000166116
5.21562e-06
-2.29025e-05
-6.11971e-06
-2.22935e-05
0.000865051
1.03118e-05
0.000755557
0.000946176
-0.000115025
0.000963479
-3.95963e-05
0.000951864
-2.38971e-05
3.55122e-05
3.54042e-05
-7.27548e-05
-4.92043e-05
1.3622e-05
-2.68428e-05
-8.2399e-05
-0.000131114
0.000322166
-0.000215172
-0.000320381
0.00039717
-0.000190427
0.000306686
-0.000784606
0.000459871
-0.00166379
-0.000570356
0.000743331
0.000880866
-0.000308038
0.000968446
-0.000253696
2.99796e-06
-1.22784e-05
-3.12175e-06
8.81595e-05
0.000916907
-5.32021e-05
0.000853473
-1.23192e-05
0.000765868
0.00102612
-0.000172696
0.00105049
-6.39676e-05
0.00103966
4.63447e-05
0.000999444
0.000128371
-0.000118509
0.000932835
0.000185118
5.74522e-05
-0.000104205
-3.56466e-05
2.76045e-05
-1.93565e-05
1.0414e-05
-9.65233e-06
-0.000129769
-0.000216517
-6.19159e-05
-0.000172058
0.000691201
-0.000801687
0.000902307
-0.000467014
0.00101091
-0.000362296
2.20817e-06
-4.07262e-06
-9.13578e-07
0.000865657
-6.72598e-05
0.000823942
-2.36708e-05
0.000753549
0.000822863
-0.000147403
0.000257375
0.0010796
-0.000241387
0.0011107
-9.50746e-05
0.0011024
5.46529e-05
0.00105829
0.000172472
0.000974521
0.000268892
4.56506e-05
-3.06057e-05
-7.69608e-05
2.44409e-05
-1.4437e-05
1.14678e-05
-6.38344e-06
4.27926e-06
-2.46381e-06
0.00087724
-0.000653052
0.00100527
-0.00049033
8.82545e-07
-6.75912e-07
-3.10327e-08
0.000334145
0.000670019
-0.000181301
0.000790611
-7.23573e-05
0.000785617
-2.89352e-05
0.000729878
0.000827248
0.000404649
0.000622685
0.000538707
0.0003883
-0.00129507
0.00152945
0.00108448
-0.000320594
0.00112436
-0.000134952
0.00112318
5.58323e-05
0.00107778
0.000217874
0.000975242
0.000371428
-3.58705e-05
-5.57962e-05
6.10611e-05
-1.92675e-05
-3.104e-05
-9.092e-06
-1.65589e-05
-3.37977e-06
-8.17605e-06
-6.70569e-07
-3.38511e-06
-7.01603e-07
0.000987996
0.000345413
-0.000945109
0.000371512
-0.00099656
0.000688051
-7.87405e-05
0.000739103
-2.58427e-05
0.000700943
0.000793492
0.000586398
0.000547572
0.000784628
0.000411899
0.00166513
0.000483369
0.000916527
-5.78824e-05
-9.54244e-05
9.75105e-05
-3.13309e-05
-5.75914e-05
-1.47862e-05
-3.31036e-05
-5.47326e-06
-1.7489e-05
-1.09568e-06
-7.7627e-06
-1.79728e-06
0.00010144
0.000300671
-5.66987e-05
0.000227769
-0.000801366
0.000357809
-0.000666317
0.000680878
-2.05163e-05
0.000675101
0.000415917
0.000168892
-4.4625e-05
-0.00012534
7.45408e-05
-2.45274e-05
-7.76891e-05
-1.18012e-05
-4.58298e-05
-4.48913e-06
-2.48011e-05
-9.73173e-07
-1.12786e-05
-2.77046e-06
0.000246466
0.000202982
-0.000148777
0.000201339
-3.02687e-05
0.000136232
-0.00057979
0.000342994
-0.000328433
0.000654584
0.000297754
0.000364629
-1.47612e-05
-0.000134216
2.36367e-05
-8.36466e-06
-8.40856e-05
-4.13949e-06
-5.0055e-05
-1.66043e-06
-2.72801e-05
-4.05112e-07
-1.2534e-05
-3.17557e-06
0.000150015
0.000136512
-8.35443e-05
0.000129105
-7.65433e-05
0.000120991
-1.50278e-05
7.00081e-05
-0.000306804
0.000326151
0.000201955
0.000245814
1.39926e-05
-0.000122564
-2.56445e-05
7.11035e-06
-7.72033e-05
3.16834e-06
-4.6113e-05
1.1178e-06
-2.52296e-05
1.7957e-07
-1.15957e-05
-2.996e-06
0.000129939
7.89325e-05
-7.23599e-05
8.60025e-05
-4.04422e-05
7.42021e-05
-2.97539e-05
5.93512e-05
-4.37097e-06
1.93474e-05
0.000120022
0.000211872
-8.92998e-05
6.00167e-05
0.000149305
1.62173e-05
-3.57555e-05
-0.000103026
7.57562e-06
-6.85616e-05
3.23832e-06
-4.17757e-05
1.16855e-06
-2.31598e-05
2.24988e-07
-1.06522e-05
-2.77101e-06
3.85188e-05
-4.88861e-05
4.86464e-05
-3.50039e-05
4.90659e-05
-1.5306e-05
3.5431e-05
-5.83373e-06
1.49764e-05
-5.232e-05
2.40148e-05
8.83219e-05
-3.18901e-05
5.77156e-05
-6.76011e-05
-1.256e-05
-4.24899e-05
-2.81567e-06
-2.03965e-05
-5.58667e-06
1.45242e-05
-2.83255e-05
2.31404e-05
-2.338e-05
2.72539e-05
-1.3192e-05
2.3206e-05
-3.081e-06
9.14269e-06
4.93313e-06
-2.58513e-05
4.4933e-05
-2.07608e-06
7.07334e-06
7.25719e-06
-1.22544e-05
-1.29808e-05
5.6046e-05
-6.34617e-05
-1.85675e-05
-1.93368e-06
-8.2326e-06
1.50994e-05
2.33185e-06
-1.36589e-05
8.22127e-06
-1.34064e-05
1.26592e-05
-8.78527e-06
1.273e-05
-2.71597e-06
6.06169e-06
1.56697e-06
4.385e-06
-8.02806e-06
-4.98797e-07
3.47106e-06
4.10108e-06
-1.88995e-06
8.48196e-06
-1.68641e-05
1.0272e-05
-3.10793e-06
-3.3618e-07
1.51043e-06
-1.79616e-06
-4.10459e-06
8.96853e-07
-6.33449e-06
4.24633e-06
-4.99354e-06
5.79599e-06
-1.85122e-06
3.34572e-06
3.51219e-06
1.70898e-06
-3.65421e-06
1.6782e-06
2.208e-06
1.1778e-07
1.46333e-06
-7.53769e-07
3.04908e-06
6.18665e-06
-2.68445e-06
4.81534e-06
-2.38966e-05
2.17657e-05
-2.17798e-06
2.17477e-06
-3.10472e-06
-2.24135e-06
1.09014e-07
-1.41899e-06
-1.78874e-06
2.36079e-07
-2.32425e-06
1.84551e-06
-1.04307e-06
1.4945e-06
3.85108e-06
-3.38221e-07
-6.63903e-10
2.66481e-06
7.22377e-07
1.33943e-06
9.8635e-07
2.42302e-07
4.67261e-07
-2.01102e-07
5.65732e-07
-5.83398e-07
5.39874e-06
-1.21606e-06
1.74382e-06
-2.70574e-06
-1.40737e-06
1.34079e-06
-1.48311e-06
1.73126e-07
-9.41162e-07
-6.11502e-07
3.47791e-09
-4.82212e-07
4.5143e-07
2.70993e-06
-2.27854e-06
3.41969e-06
2.65969e-06
-3.33107e-07
1.80199e-06
2.59819e-07
8.8376e-07
3.44892e-07
1.82764e-07
8.33945e-08
-1.76661e-08
-1.68956e-06
-9.53224e-07
1.42672e-06
-6.61879e-07
9.98335e-07
-8.43013e-07
7.00692e-07
-8.74376e-07
1.06339e-07
-4.96971e-07
-1.11053e-07
-3.07826e-08
1.50461e-06
-2.03704e-06
3.24236e-06
1.72799e-06
-1.34684e-06
1.68563e-06
-2.16748e-07
1.076e-06
6.75768e-08
4.62553e-07
6.51022e-08
6.57283e-08
-2.47403e-06
-1.39816e-06
2.18263e-06
-1.0478e-06
-5.673e-07
-3.37303e-07
4.92625e-07
-4.55617e-07
2.81934e-07
-4.23778e-07
3.31448e-08
-1.41835e-07
2.15818e-06
1.27867e-06
-1.93224e-06
8.36684e-07
-1.14574e-06
1.01826e-06
-6.79471e-07
9.5953e-07
-1.00275e-07
5.24494e-07
5.63561e-09
1.3083e-07
-2.93913e-06
-7.53898e-07
1.219e-06
-1.63577e-06
-8.10195e-07
-6.10907e-07
-2.93695e-07
-1.52778e-07
1.89785e-07
-2.04165e-07
6.2321e-08
-1.08691e-07
-2.83766e-06
1.91729e-07
-2.93201e-07
1.29764e-06
-1.97712e-06
1.35319e-06
7.62168e-07
4.32338e-07
-5.59813e-07
5.44608e-07
-2.64548e-07
4.50634e-07
-2.64151e-08
1.36466e-07
-1.96169e-06
-4.27979e-07
-1.01479e-06
-4.06308e-07
-3.259e-07
-1.20573e-07
-5.36041e-08
3.92241e-08
-4.63696e-08
-1.88594e-06
1.15981e-07
7.64885e-07
7.9944e-07
3.95067e-07
1.99212e-07
-2.14417e-07
2.42195e-07
-5.6109e-08
1.10051e-07
-1.23e-06
-2.12775e-07
-5.72346e-07
-1.59862e-07
-1.46271e-07
-2.79058e-08
-7.1456e-09
-1.1754e-06
6.13806e-08
3.88926e-07
4.32077e-07
1.62202e-07
7.1645e-08
-4.38669e-08
5.3942e-08
-7.00613e-07
-8.45071e-08
-2.7029e-07
-3.58431e-08
-3.50514e-08
-6.65835e-07
2.66017e-08
1.55168e-07
1.96174e-07
3.76731e-08
1.00751e-08
-3.35024e-07
-1.97731e-08
-7.08945e-08
-3.15767e-07
7.34468e-09
3.55747e-08
4.77482e-08
-9.06676e-08
-8.33229e-08
0.000597176
-0.00138178
-0.00106661
0.000323398
-0.000539915
0.000860691
-0.000537292
0.00054031
0.00130424
-0.000763927
0.00111381
-0.000267973
0.00157007
-0.00183804
0.000503454
-0.000298232
-0.00139491
0.000630982
0.000139432
-0.00031149
-0.000400483
4.44253e-05
-0.000121386
-0.000267064
0.00033185
-0.000732333
0.00117716
-0.000845312
0.00063987
-0.000755039
0.00207405
-0.00144306
0.000236006
0.00130968
-0.00107367
0.00101145
0.000358396
0.00101926
-0.0017743
-0.000423804
-6.0325e-05
0.000230333
-0.000290658
-3.67309e-05
-0.000769064
-6.73791e-05
-0.000701685
0.00137395
-0.00144133
0.000528638
-0.00124566
0.00142816
-0.00185196
0.000354482
0.000887057
-0.000532575
-0.00124545
0.000755123
-0.00137921
0.00105861
-0.000624083
0.000990115
-0.00223578
-0.000861846
0.000861472
0.000803653
0.001778
-0.00041296
0.000999358
-0.00149416
0.0013592
-0.000435543
-0.00116239
0.00074943
-0.000790961
-0.00132534
0.00138117
3.38664e-05
-0.0012936
0.000502641
-0.00107573
0.00030544
-0.000193148
0.000132845
-0.000325993
-0.00056884
0.000281264
-0.000850104
-0.00116007
0.000202731
-0.0013628
-0.00203305
0.00114368
-0.00200553
-0.00061111
-1.2973e-05
-0.000667349
0.000231806
-0.000680322
-2.44603e-05
-0.00200859
-0.00202999
-0.000901735
0.00170539
-0.000117108
0.00088225
0.000281889
0.00149611
0.00198728
0.001665
-2.67963e-05
0.000909047
-0.00101702
0.000990228
-0.000267594
-0.000587174
0.00062104
-0.000355368
-0.000971564
0.00070397
-0.000468923
-0.000798065
0.000329142
-0.000492625
0.000128415
-0.000251452
8.12188e-05
-0.000332671
-0.000768885
3.49881e-05
-0.000803873
-0.00132781
-0.000350867
-0.00097694
-0.00235945
0.00088465
-0.00124002
0.000204328
-0.00182566
-0.0014258
0.000185782
0.000920206
-0.00274587
-0.00143925
0.000538696
0.00144858
0.00144774
-0.00100919
0.00137382
0.000655813
0.00210439
9.87535e-05
0.00134899
0.00108898
4.39436e-05
0.00104504
0.000747913
0.000217711
0.000530202
0.000546853
0.000675268
-0.000750532
-0.000309034
1.00554e-05
-0.000319089
-0.000793818
-0.000349422
-0.000444395
-0.00132636
-0.000424789
-0.000901574
-0.00186404
0.00201384
-0.00182806
-0.000732026
0.00173274
-0.00248327
-9.53203e-05
0.00128856
-0.00202059
-0.000575475
-0.0006172
0.000863013
0.000756618
-0.00121317
0.00196979
0.000891223
0.00224021
0.00140605
0.000834159
0.00245109
0.00298129
-0.000632476
0.00205931
-0.00142683
0.00311575
-0.000134455
-0.000344734
0.000565041
-0.00114052
-9.40119e-05
-0.000250722
-0.000538407
-0.000119133
-0.000419275
-0.00102071
-0.000455665
0.00182452
0.000234792
-0.0017292
-0.000291389
-0.000733457
0.000968249
-0.000977306
-0.000163211
0.000648003
-0.000939393
-0.000329303
-0.00117904
0.000445583
-0.000325393
0.000537265
0.000537621
2.8073e-05
-0.000605877
0.000577804
-0.00115097
-0.000122757
0.000349284
-0.000226527
-0.000728634
-0.000703158
0.00124078
0.00126663
0.00210079
-0.000341402
-0.000809565
-0.00176823
0.00121701
0.000883781
0.00108256
-0.000685679
-0.000286478
0.000394878
-0.000558089
-0.00067678
0.000221115
-0.000281902
-0.000125806
-0.000160671
-0.000545081
-0.000323966
-0.00126107
0.000321673
-0.000292817
-0.00060869
0.000315874
-0.000163107
-0.000503043
-5.50458e-05
0.000832345
-0.000510673
-0.000676772
0.000513665
-9.89683e-05
0.000369138
-1.9854e-05
0.000270169
-0.000219658
0.000199804
1.72233e-05
0.000144692
-0.000161915
-0.000202435
-0.000428962
-0.000259318
-0.000169644
-0.000113033
0.000262338
0.000424232
-0.000149324
0.000573556
0.00109145
0.000317415
-0.000576733
-0.000411219
-0.00122078
0.000468737
0.000622718
-0.000666839
-0.000553946
0.00135252
-2.1567e-05
0.000109889
0.000240771
0.000113872
-0.000274543
-1.0846e-05
-0.000466348
0.000184445
-0.000521393
-0.000100944
-0.000173598
-0.000424911
-0.000240465
0.000483844
2.9821e-05
-0.000799718
0.000289045
-0.00053203
1.0637e-05
-0.000242985
-0.00030095
0.000330771
-0.000346577
4.56267e-05
-7.64077e-05
-0.000238841
0.000162434
-3.90372e-05
-0.000132061
9.30241e-05
1.26303e-05
5.5058e-06
2.43907e-05
-2.98965e-05
1.2763e-05
-2.40515e-05
4.84423e-05
6.98311e-05
-9.38827e-05
8.24615e-05
-4.69431e-05
-4.69396e-05
-0.000208858
-2.42642e-05
-5.63233e-06
-7.12038e-05
-1.78868e-05
-0.000102312
-0.000106546
-0.000271956
-0.000104211
-0.000167745
-0.000680944
-9.4309e-05
0.00033508
0.000479247
0.00110196
-0.000443767
-0.000237177
0.000997713
0.000104252
1.87283e-05
2.62047e-05
0.000128617
4.66014e-05
8.20158e-05
0.000381681
5.40451e-05
-0.000227644
1.3556e-05
-7.32801e-05
-0.000154363
-0.000313745
-0.000303108
-0.000234946
-6.81619e-05
-0.000477932
-0.00014716
0.000192027
-2.95936e-05
-0.000237654
9.04937e-05
5.34942e-05
2.89673e-05
0.000146518
0.000116925
4.10043e-05
7.43794e-06
6.99716e-05
1.771e-05
-4.9164e-05
-2.20398e-05
-0.00015571
-2.31062e-05
5.21947e-06
-4.5146e-05
-2.80859e-06
1.5251e-05
-1.51646e-07
4.14557e-05
-0.000103326
-5.23841e-05
-0.000271071
-0.000148752
-0.000122319
-0.000385929
0.000342333
3.9349e-05
0.000446585
6.06557e-05
9.45512e-06
3.20006e-05
9.14709e-05
0.00013082
9.71361e-05
-2.71645e-05
0.000214061
-0.000236393
8.20292e-05
-0.000304554
-1.85675e-05
-5.39874e-06
-8.07371e-06
7.92207e-06
-6.56328e-06
-4.08168e-05
-4.32927e-06
-9.32009e-05
-1.27303e-05
9.92173e-06
-1.70596e-05
6.26752e-06
1.14651e-05
-3.54301e-06
4.34657e-05
-7.53218e-05
-1.78791e-05
-0.00019764
-0.000136985
3.34944e-05
9.97125e-06
0.000164314
2.73295e-05
-8.42573e-06
4.88272e-06
5.0953e-06
-8.20001e-06
-1.46798e-06
-9.89371e-06
-7.68442e-07
-7.43157e-06
-3.47418e-06
-3.03867e-05
1.33271e-05
-4.82659e-05
-1.81676e-06
8.08428e-06
1.15104e-05
8.08362e-06
1.31605e-05
-8.27775e-06
2.31317e-05
3.05224e-05
-7.39065e-06
-5.78519e-05
9.58602e-06
-4.51019e-07
-9.4427e-06
-8.72877e-06
-2.52328e-06
-4.90829e-06
-1.1966e-05
-2.04746e-06
-6.95575e-06
2.83185e-06
8.67853e-06
1.24179e-05
-4.25882e-06
7.67851e-06
3.8248e-06
1.25033e-05
-2.58181e-06
-6.14697e-06
-9.97245e-06
-1.12822e-05
1.30975e-06
1.13568e-06
8.31364e-07
6.84714e-06
4.07372e-06
-8.1971e-06
-3.76887e-06
-1.43441e-05
-4.77312e-06
-8.542e-06
4.98566e-07
6.34858e-06
1.30019e-05
1.41376e-05
-1.30113e-05
-1.33274e-06
1.17016e-05
2.43599e-06
2.14148e-06
8.49006e-06
-7.323e-06
-8.65573e-06
-8.94893e-06
6.51295e-06
)
;

boundaryField
{
    movingWall
    {
        type            calculated;
        value           uniform 0;
    }
    fixedWalls
    {
        type            calculated;
        value           uniform 0;
    }
    frontAndBack
    {
        type            empty;
        value           nonuniform List<scalar> 0();
    }
    defaultFaces
    {
        type            empty;
        value           nonuniform List<scalar> 0();
    }
}


// ************************************************************************* //
