/*--------------------------------*- C++ -*----------------------------------*\
  =========                 |
  \\      /  F ield         | OpenFOAM: The Open Source CFD Toolbox
   \\    /   O peration     | Website:  https://openfoam.org
    \\  /    A nd           | Version:  8
     \\/     M anipulation  |
\*---------------------------------------------------------------------------*/
FoamFile
{
    version     2.0;
    format      ascii;
    class       surfaceScalarField;
    location    "0.049";
    object      phi;
}
// * * * * * * * * * * * * * * * * * * * * * * * * * * * * * * * * * * * * * //

dimensions      [0 3 -1 0 0 0 0];

internalField   nonuniform List<scalar> 
1107
(
0.000315988
-0.000643388
0.000633495
-0.000306095
0.000616968
-0.00030098
-2.96865e-05
0.000646655
0.000304963
0.000538556
-0.000106655
-0.000736864
-0.000968717
0.000630292
-9.76534e-05
0.000701462
0.000286064
-5.36026e-05
-1.49164e-05
-3.72704e-05
0.000683925
-3.30515e-05
1.43468e-05
-8.79508e-05
0.000180754
-0.000148835
-6.49706e-05
0.000300274
-0.000856384
-0.00126768
0.000599238
-0.000207456
0.000740095
0.000760957
-9.6766e-05
4.1704e-05
0.000814888
-9.56349e-05
3.58079e-06
-4.28366e-05
-1.13356e-05
0.000725629
0.000853028
2.99168e-05
-6.80562e-05
6.44732e-05
-0.000126751
-8.65568e-05
2.51489e-05
-4.86265e-05
0.000227396
-0.000140759
-0.000213388
0.00027785
-0.000115425
0.000296554
-0.000875089
-0.0015106
0.00053947
-0.000366475
0.000758257
0.000828743
-0.000185415
0.000899178
-0.00016607
5.21559e-06
-2.29033e-05
-6.11998e-06
-2.22738e-05
0.000864994
1.03075e-05
0.000755546
0.000946086
-0.000114964
0.000963356
-3.95441e-05
0.000951729
-2.39042e-05
3.55318e-05
3.5403e-05
-7.27524e-05
-4.92075e-05
1.36216e-05
-2.6845e-05
-8.24026e-05
-0.000131109
0.000322165
-0.000215171
-0.000320382
0.000397172
-0.000190432
0.000306687
-0.000784605
0.00045986
-0.00166377
-0.00057031
0.000743305
0.000880822
-0.000307979
0.000968349
-0.000253597
2.99788e-06
-1.22796e-05
-3.12209e-06
8.81407e-05
0.000916782
-5.31946e-05
0.00085341
-1.23206e-05
0.000765853
0.00102595
-0.000172568
0.00105027
-6.38574e-05
0.00103941
4.6387e-05
0.000999218
0.000128334
-0.000118458
0.000932663
0.000185013
5.74522e-05
-0.000104203
-3.56513e-05
2.76047e-05
-1.936e-05
1.04141e-05
-9.65448e-06
-0.000129771
-0.000216509
-6.19207e-05
-0.000172053
0.000691152
-0.000801601
0.000902228
-0.000466902
0.00101074
-0.000362112
2.20823e-06
-4.07371e-06
-9.13865e-07
0.000865565
-6.724e-05
0.000823885
-2.3669e-05
0.000753533
0.000822754
-0.000147345
0.000257254
0.00107933
-0.000241151
0.00111034
-9.48717e-05
0.001102
5.47321e-05
0.00105792
0.000172408
0.000974229
0.000268704
4.5653e-05
-3.06106e-05
-7.69632e-05
2.44428e-05
-1.4441e-05
1.14689e-05
-6.38616e-06
4.2798e-06
-2.46535e-06
0.000877108
-0.000652859
0.00100501
-0.000490017
8.82686e-07
-6.76597e-07
-3.11809e-08
0.000334049
0.000669962
-0.000181256
0.000790555
-7.23353e-05
0.000785575
-2.89308e-05
0.000729864
0.000827056
0.000404427
0.000622577
0.000538528
0.000388249
-0.001295
0.00152933
0.00108406
-0.000320197
0.0011238
-0.00013461
0.00112256
5.59694e-05
0.0010772
0.000217774
0.000974777
0.000371122
-3.58724e-05
-5.57984e-05
6.10603e-05
-1.92696e-05
-3.10438e-05
-9.09344e-06
-1.65623e-05
-3.38045e-06
-8.17834e-06
-6.7073e-07
-3.38632e-06
-7.01913e-07
0.000988118
0.000345307
-0.000945175
0.000371489
-0.000996529
0.000688023
-7.87245e-05
0.000739078
-2.58379e-05
0.000700933
0.000793176
0.000586028
0.000547382
0.000784323
0.000411792
0.00166492
0.000483181
0.000916729
-5.78647e-05
-9.54086e-05
9.74749e-05
-3.1323e-05
-5.75856e-05
-1.47831e-05
-3.31022e-05
-5.47233e-06
-1.74892e-05
-1.09554e-06
-7.76311e-06
-1.79746e-06
0.000101637
0.000300476
-5.68068e-05
0.000227711
-0.000801398
0.0003578
-0.000666306
0.000680867
-2.05131e-05
0.000675095
0.0004156
0.000169218
-4.45805e-05
-0.000125288
7.44602e-05
-2.45047e-05
-7.76614e-05
-1.1791e-05
-4.58158e-05
-4.48556e-06
-2.47946e-05
-9.72498e-07
-1.12762e-05
-2.76996e-06
0.000246621
0.000202718
-0.000148863
0.000201224
-3.03203e-05
0.000136204
-0.000579802
0.000342992
-0.000328431
0.000654582
0.000297336
0.000364885
-1.47094e-05
-0.000134125
2.3546e-05
-8.33746e-06
-8.40334e-05
-4.12692e-06
-5.00264e-05
-1.65584e-06
-2.72657e-05
-4.04177e-07
-1.25278e-05
-3.17414e-06
0.000150045
0.000136236
-8.35633e-05
0.000128946
-7.65846e-05
0.00012093
-1.50469e-05
6.9996e-05
-0.000306806
0.000326151
0.000201526
0.000245854
1.40302e-05
-0.000122448
-2.57075e-05
7.13081e-06
-7.71339e-05
3.17811e-06
-4.60737e-05
1.12147e-06
-2.52091e-05
1.80357e-07
-1.15867e-05
-2.99378e-06
0.000129814
7.87151e-05
-7.22932e-05
8.58353e-05
-4.04525e-05
7.41155e-05
-2.97698e-05
5.9324e-05
-4.37482e-06
1.93449e-05
0.000119684
0.000211657
-8.90855e-05
5.98263e-05
0.000148943
1.6247e-05
-3.57964e-05
-0.000102898
7.59216e-06
-6.84791e-05
3.24617e-06
-4.17277e-05
1.17133e-06
-2.31343e-05
2.25552e-07
-1.06409e-05
-2.76822e-06
3.83993e-05
-4.87696e-05
4.85148e-05
-3.49727e-05
4.89733e-05
-1.53103e-05
3.53914e-05
-5.83718e-06
1.49701e-05
-5.21246e-05
2.39595e-05
8.79914e-05
-3.18277e-05
5.75981e-05
-6.74981e-05
-1.25362e-05
-4.24257e-05
-2.8106e-06
-2.03666e-05
-5.57882e-06
1.44945e-05
-2.82197e-05
2.30699e-05
-2.33247e-05
2.71812e-05
-1.31805e-05
2.31632e-05
-3.08219e-06
9.13287e-06
4.96722e-06
-2.57288e-05
4.4721e-05
-2.07559e-06
7.03214e-06
7.22821e-06
-1.21848e-05
-1.29543e-05
5.59276e-05
-6.33399e-05
-1.85331e-05
-1.86906e-06
-8.19833e-06
1.50346e-05
2.35981e-06
-1.3594e-05
8.20642e-06
-1.33563e-05
1.26211e-05
-8.7646e-06
1.26964e-05
-2.71371e-06
6.05068e-06
1.53882e-06
4.34676e-06
-7.96116e-06
-5.01862e-07
3.44995e-06
4.0841e-06
-1.88189e-06
8.44692e-06
-1.67958e-05
1.02308e-05
-3.04834e-06
-3.53816e-07
1.53309e-06
-1.75076e-06
-4.08775e-06
9.16997e-07
-6.30459e-06
4.23965e-06
-4.97484e-06
5.77872e-06
-1.84689e-06
3.33697e-06
3.46415e-06
1.68594e-06
-3.61127e-06
1.65702e-06
2.18788e-06
1.1423e-07
1.45382e-06
-7.50221e-07
3.0362e-06
6.16092e-06
-2.67302e-06
4.79822e-06
-2.38159e-05
2.16907e-05
-2.1405e-06
2.13515e-06
-3.04298e-06
-2.20197e-06
9.73987e-08
-1.38943e-06
-1.78132e-06
2.48702e-07
-2.31365e-06
1.84302e-06
-1.03914e-06
1.49008e-06
3.79828e-06
-3.39143e-07
5.01874e-09
2.63197e-06
7.10955e-07
1.3251e-06
9.7702e-07
2.39646e-07
4.6395e-07
-1.99941e-07
5.63126e-07
-5.80608e-07
5.37882e-06
-1.19653e-06
1.7153e-06
-2.65926e-06
-1.38478e-06
1.31799e-06
-1.45884e-06
1.6681e-07
-9.23948e-07
-6.0867e-07
9.22123e-09
-4.79843e-07
4.50938e-07
2.67271e-06
-2.25046e-06
3.37603e-06
2.62532e-06
-3.32472e-07
1.78118e-06
2.54868e-07
8.75169e-07
3.415e-07
1.81257e-07
8.27511e-08
-1.74823e-08
-1.66109e-06
-9.36518e-07
1.40109e-06
-6.52103e-07
9.82654e-07
-8.3022e-07
6.89381e-07
-8.60825e-07
1.03691e-07
-4.88694e-07
-1.10753e-07
-2.89044e-08
1.48427e-06
-2.0102e-06
3.19864e-06
1.70549e-06
-1.33064e-06
1.66469e-06
-2.15982e-07
1.06411e-06
6.5924e-08
4.58331e-07
6.44266e-08
6.52684e-08
-2.4309e-06
-1.3733e-06
2.14312e-06
-1.03097e-06
-5.57624e-07
-3.32683e-07
4.85123e-07
-4.49016e-07
2.77574e-07
-4.17502e-07
3.2501e-08
-1.39657e-07
2.12639e-06
1.25852e-06
-1.90064e-06
8.26203e-07
-1.13089e-06
1.00549e-06
-6.7144e-07
9.47959e-07
-9.98304e-08
5.18895e-07
5.3597e-09
1.29695e-07
-2.88861e-06
-7.4198e-07
1.19969e-06
-1.60822e-06
-7.9604e-07
-6.01479e-07
-2.88826e-07
-1.5086e-07
1.86971e-07
-2.01329e-07
6.14024e-08
-1.07155e-07
-2.79162e-06
1.84433e-07
-2.81419e-07
1.27306e-06
-1.93829e-06
1.33413e-06
7.50609e-07
4.27265e-07
-5.52663e-07
5.37986e-07
-2.61465e-07
4.45333e-07
-2.62685e-08
1.35056e-07
-1.92894e-06
-4.21254e-07
-9.98188e-07
-3.9933e-07
-3.21051e-07
-1.18633e-07
-5.30149e-08
3.86584e-08
-4.57529e-08
-1.85634e-06
1.11835e-07
7.50858e-07
7.88594e-07
3.89281e-07
1.97041e-07
-2.11717e-07
2.39336e-07
-5.54648e-08
1.08788e-07
-1.20998e-06
-2.09456e-07
-5.63218e-07
-1.57162e-07
-1.44172e-07
-2.74751e-08
-7.0928e-09
-1.15747e-06
5.93175e-08
3.81985e-07
4.26414e-07
1.59909e-07
7.09437e-08
-4.33231e-08
5.33244e-08
-6.89473e-07
-8.31994e-08
-2.66081e-07
-3.52517e-08
-3.45664e-08
-6.55932e-07
2.57766e-08
1.52467e-07
1.9369e-07
3.71651e-08
1.00006e-08
-3.29809e-07
-1.94698e-08
-6.98179e-08
-3.11179e-07
7.14679e-09
3.49767e-08
4.71649e-08
-8.92876e-08
-8.21416e-08
0.000597173
-0.00138178
-0.0010666
0.000323376
-0.000539884
0.000860655
-0.000537279
0.000540273
0.00130422
-0.000763944
0.00111379
-0.000267992
0.00157
-0.00183799
0.000503406
-0.000298195
-0.00139477
0.000630826
0.000139427
-0.000311481
-0.000400457
4.44325e-05
-0.000121396
-0.000267048
0.000331746
-0.000732203
0.001177
-0.000845253
0.00063972
-0.00075505
0.00207383
-0.001443
0.000235833
0.00130944
-0.00107361
0.00101124
0.000358385
0.00101893
-0.00177398
-0.000424067
-6.03354e-05
0.000230311
-0.000290647
-3.67367e-05
-0.00076894
-6.74693e-05
-0.000701471
0.00137342
-0.00144089
0.000528168
-0.00124582
0.00142748
-0.00185155
0.000353874
0.000886597
-0.000532723
-0.00124498
0.000754965
-0.00137831
0.00105812
-0.00062335
0.00098896
-0.00223478
-0.000862588
0.000861109
0.00080381
0.00177784
-0.000412513
0.000998541
-0.00149262
0.00135801
-0.000434505
-0.00116126
0.000748743
-0.000790134
-0.00132375
0.00137971
3.42675e-05
-0.00129224
0.000502104
-0.00107446
0.00030525
-0.000193172
0.000132732
-0.000325904
-0.000568738
0.000280879
-0.000849618
-0.00116001
0.000201779
-0.00136179
-0.002033
0.00114197
-0.00200456
-0.00060925
-1.41004e-05
-0.00066537
0.000230865
-0.000679471
-2.61619e-05
-0.00200684
-0.00203072
-0.000900816
0.00170463
-0.000116493
0.000882048
0.000282447
0.00149539
0.00198707
0.00166461
-2.52202e-05
0.000907268
-0.00101458
0.000989355
-0.000265832
-0.000583868
0.000618135
-0.000353002
-0.000968764
0.000702932
-0.00046666
-0.000795603
0.000328943
-0.000490352
0.000127783
-0.000251444
8.10468e-05
-0.000332491
-0.000768571
3.45955e-05
-0.000803167
-0.00132719
-0.0003515
-0.000975695
-0.00235834
0.000886724
-0.00123973
0.000207253
-0.00182347
-0.0014279
0.000188172
0.000921226
-0.0027447
-0.00143711
0.000540284
0.00144679
0.00144755
-0.00100806
0.00137295
0.00065655
0.00210334
0.000100946
0.00134661
0.0010903
4.67957e-05
0.00104351
0.000749728
0.000221636
0.000528092
0.000550579
0.000678362
-0.000749537
-0.000308945
9.86567e-06
-0.00031881
-0.000793301
-0.000349528
-0.000443773
-0.00132522
-0.000425038
-0.000900185
-0.00186215
0.00201493
-0.00182676
-0.000729766
0.0017333
-0.00248284
-9.34561e-05
0.00128818
-0.00201795
-0.000573963
-0.000615955
0.00086181
0.00075699
-0.00121057
0.00196756
0.000892768
0.00223937
0.0014087
0.000830676
0.0024522
0.0029803
-0.000633108
0.00205745
-0.00142434
0.00311595
-0.000135649
-0.000344518
0.000564699
-0.00113866
-9.4113e-05
-0.000250405
-0.000537886
-0.000119272
-0.000418614
-0.00101946
-0.000454758
0.00182176
0.000235684
-0.00172831
-0.000289644
-0.000731405
0.00096709
-0.000976036
-0.000162626
0.000647689
-0.000937333
-0.000328346
-0.0011764
0.000444997
-0.000324367
0.000536024
0.000537442
2.74531e-05
-0.000603995
0.000576542
-0.00114895
-0.00012265
0.000348302
-0.000225652
-0.000726645
-0.000700613
0.00123806
0.00126695
0.00209762
-0.000341597
-0.000807352
-0.00176594
0.00121648
0.000881144
0.00108083
-0.000685107
-0.000286201
0.000394483
-0.000557109
-0.000675781
0.000221023
-0.000281298
-0.000125791
-0.00016041
-0.000544405
-0.000323382
-0.00125884
0.000321508
-0.000291751
-0.0006073
0.000315548
-0.000162303
-0.000502467
-5.46423e-05
0.000830813
-0.000509305
-0.000674914
0.000512611
-9.8372e-05
0.00036796
-1.96574e-05
0.000269588
-0.000218908
0.00019925
1.70827e-05
0.000144219
-0.000161302
-0.000201825
-0.000427477
-0.00025848
-0.000168998
-0.000112541
0.000261485
0.000423482
-0.000148344
0.000571826
0.00108971
0.000316217
-0.000574696
-0.000410428
-0.00121778
0.000469144
0.000620568
-0.000665182
-0.000552599
0.00135029
-2.15246e-05
0.000109516
0.00023996
0.000113779
-0.00027419
-1.08811e-05
-0.000465616
0.000184317
-0.000520258
-0.000100901
-0.000173289
-0.000424283
-0.000239965
0.000482533
3.00785e-05
-0.000798081
0.000288776
-0.000531044
1.07866e-05
-0.000242268
-0.000300013
0.000330091
-0.000345644
4.5631e-05
-7.60558e-05
-0.000238078
0.000162023
-3.88283e-05
-0.000131596
9.27673e-05
1.26235e-05
5.48344e-06
2.42913e-05
-2.97747e-05
1.27117e-05
-2.3974e-05
4.82652e-05
6.95592e-05
-9.35331e-05
8.21827e-05
-4.6771e-05
-4.67621e-05
-0.000208073
-2.41467e-05
-5.62802e-06
-7.09088e-05
-1.78128e-05
-0.000101919
-0.000106154
-0.000270916
-0.0001038
-0.000167116
-0.000678496
-9.38436e-05
0.000333804
0.000477982
0.00109855
-0.000442185
-0.000236311
0.000994785
0.000103766
1.85223e-05
2.61986e-05
0.000128038
4.62743e-05
8.17641e-05
0.000380078
5.39962e-05
-0.000227285
1.35019e-05
-7.32491e-05
-0.000154036
-0.000313214
-0.000302428
-0.000234514
-6.79135e-05
-0.000476783
-0.000146692
0.000191437
-2.94144e-05
-0.000237068
9.03764e-05
5.32781e-05
2.89046e-05
0.000146045
0.000116631
4.08411e-05
7.4242e-06
6.97456e-05
1.7655e-05
-4.89119e-05
-2.19969e-05
-0.000155066
-2.29339e-05
5.1211e-06
-4.49307e-05
-2.84008e-06
1.50508e-05
-1.61366e-08
4.12494e-05
-0.000102765
-5.23017e-05
-0.000269881
-0.00014797
-0.000121911
-0.000384281
0.000340768
3.93099e-05
0.000444534
6.02531e-05
9.18982e-06
3.20596e-05
9.09539e-05
0.000130264
9.68151e-05
-2.70695e-05
0.000213446
-0.000235909
8.1873e-05
-0.000303823
-1.85331e-05
-5.37882e-06
-7.95185e-06
7.93573e-06
-6.4187e-06
-4.04547e-05
-4.47604e-06
-9.27564e-05
-1.26083e-05
9.76824e-06
-1.70844e-05
6.15697e-06
1.12236e-05
-3.28784e-06
4.32832e-05
-7.46627e-05
-1.80937e-05
-0.000196574
-0.00013632
3.31341e-05
1.01491e-05
0.000163398
2.70775e-05
-8.22914e-06
4.94131e-06
5.00266e-06
-8.04561e-06
-1.41604e-06
-9.64519e-06
-7.55488e-07
-7.29012e-06
-3.41471e-06
-3.01211e-05
1.30367e-05
-4.82149e-05
-1.79823e-06
7.9552e-06
1.12384e-05
7.9602e-06
1.29815e-05
-8.04019e-06
2.31306e-05
3.04707e-05
-7.34008e-06
-5.75481e-05
9.33325e-06
-4.10278e-07
-9.23491e-06
-8.45046e-06
-2.47691e-06
-4.81319e-06
-1.17118e-05
-2.0136e-06
-6.82678e-06
2.73293e-06
8.50551e-06
1.20662e-05
-4.18677e-06
7.56281e-06
3.77343e-06
1.22789e-05
-2.40657e-06
-6.04388e-06
-9.74665e-06
-1.09911e-05
1.24446e-06
1.07506e-06
8.16554e-07
6.74626e-06
4.0152e-06
-8.01223e-06
-3.69956e-06
-1.40561e-05
-4.68365e-06
-8.38319e-06
5.05635e-07
6.24063e-06
1.27846e-05
1.38596e-05
-1.27342e-05
-1.32195e-06
1.14897e-05
2.36995e-06
2.11457e-06
8.3552e-06
-7.1835e-06
-8.50545e-06
-8.78686e-06
6.41691e-06
)
;

boundaryField
{
    movingWall
    {
        type            calculated;
        value           uniform 0;
    }
    fixedWalls
    {
        type            calculated;
        value           uniform 0;
    }
    frontAndBack
    {
        type            empty;
        value           nonuniform List<scalar> 0();
    }
    defaultFaces
    {
        type            empty;
        value           nonuniform List<scalar> 0();
    }
}


// ************************************************************************* //
