/*--------------------------------*- C++ -*----------------------------------*\
  =========                 |
  \\      /  F ield         | OpenFOAM: The Open Source CFD Toolbox
   \\    /   O peration     | Website:  https://openfoam.org
    \\  /    A nd           | Version:  8
     \\/     M anipulation  |
\*---------------------------------------------------------------------------*/
FoamFile
{
    version     2.0;
    format      ascii;
    class       volScalarField;
    location    "6000";
    object      epsilon;
}
// * * * * * * * * * * * * * * * * * * * * * * * * * * * * * * * * * * * * * //

dimensions      [0 2 -3 0 0 0 0];

internalField   nonuniform List<scalar> 
4109
(
0.117446
0.131114
0.120837
0.129913
0.135545
0.131548
0.136733
0.120697
0.145285
0.145072
0.143159
0.147245
0.119921
0.134621
0.139704
0.150934
0.151625
0.150008
0.151989
0.141144
0.121852
0.130567
0.13173
0.158827
0.160151
0.165312
0.120027
0.133833
0.118531
0.160473
0.149187
0.143095
0.133003
0.131282
0.137942
0.163078
0.164096
0.176555
0.137203
0.119622
0.134421
0.137061
0.122402
0.166565
0.154522
0.552367
0.255184
0.14888
0.143821
0.13269
0.138997
0.170776
0.178451
0.192216
0.150537
0.137567
0.11732
0.135044
0.139387
0.147633
0.144052
0.676457
0.177315
0.163067
0.157187
0.221597
0.552457
0.151027
0.143484
0.143883
0.207829
0.184805
0.236317
0.22742
0.224585
0.155878
0.155628
0.144005
0.134714
0.144291
0.140625
0.143545
0.149293
0.152089
0.182429
0.249289
0.59075
0.800668
0.809983
0.188968
0.184678
0.169517
0.163118
0.157877
0.197335
0.421868
0.15129
0.144307
0.237085
0.220717
0.209838
0.242332
0.248356
0.245916
0.251896
0.165706
0.161276
0.155836
0.14121
0.154484
0.20786
0.1472
0.151788
0.154738
0.161329
0.819501
0.303251
0.401433
0.566778
0.895477
0.847244
0.251608
0.206332
0.194386
0.178849
0.172039
0.16567
0.157374
0.429091
0.167517
0.154809
0.241512
0.227104
0.260361
0.251883
0.27434
0.256568
0.172103
0.169806
0.169182
0.1551
0.160977
0.211133
0.152189
0.157548
0.162784
0.166813
0.798462
0.474367
0.916167
0.598836
0.925769
0.284555
0.214462
0.20367
0.186773
0.17915
0.172491
0.166056
0.159943
0.415084
0.153461
0.235695
0.221824
0.269644
0.248224
0.279166
0.283649
0.300085
0.182713
0.178224
0.177041
0.16393
0.169623
0.226579
0.159219
0.165603
0.168918
0.176765
0.556405
0.972852
0.579426
1.00955
0.984643
0.313513
0.197387
0.207055
0.188714
0.172258
0.180784
0.170829
0.473505
0.161008
0.219138
0.230588
0.263616
0.24429
0.278158
0.297222
0.296313
0.338056
0.190363
0.188163
0.18948
0.17775
0.17134
0.228545
0.16579
0.171663
0.177975
0.183812
0.602665
1.05389
1.07881
0.665651
1.09678
0.310499
0.198463
0.210152
0.184846
0.178406
0.496844
0.171573
0.221467
0.234392
0.257909
0.247681
0.273649
0.29623
0.311801
0.335234
0.375038
0.20244
0.196972
0.196599
0.189103
0.178953
0.241258
0.179824
0.172461
0.211962
0.185977
0.194914
0.591059
1.15095
0.698669
1.19339
1.19333
0.328757
0.200874
0.208845
0.190319
0.547335
0.171193
0.224061
0.234164
0.26209
0.25034
0.277485
0.289834
0.315064
0.338442
0.362229
0.422392
0.213114
0.205305
0.202634
0.222026
0.18114
0.24541
0.184168
0.225184
0.203814
0.196864
1.24214
0.615548
1.29076
0.766213
1.32886
0.338849
3.64985
0.202939
0.215065
0.577124
0.178517
0.223621
0.237584
0.263058
0.249451
0.279758
0.293522
0.308307
0.33749
0.364643
0.402126
0.412959
0.47906
0.210091
0.219834
0.203514
0.234339
0.236736
0.186846
0.255189
0.199698
0.216297
0.207085
0.639641
1.36581
1.41534
0.77076
1.44498
0.353611
4.40738
3.87582
4.60697
3.18424
3.9592
2.78974
0.751789
0.187304
0.231469
0.238885
0.253837
0.252521
0.267541
0.280595
0.29401
0.311392
0.42399
0.327688
0.361238
0.397176
0.478459
0.541667
0.510046
0.617859
0.231728
0.225024
0.247544
0.251647
0.227121
0.199411
0.271777
0.207346
0.219421
0.69859
1.52078
1.50325
0.357021
9.80429
7.17486
4.72242
3.39321
4.36372
5.47821
0.724371
0.718617
0.810411
3.02079
2.61985
2.79068
2.54537
2.91515
1.38709
0.219006
0.305738
0.287316
0.27407
0.464694
0.28491
0.295614
0.311872
0.330418
0.42252
0.349641
0.387942
0.533201
0.479672
0.589861
0.576224
0.721148
0.806613
0.248663
0.251309
0.265023
0.264859
0.241316
0.231316
0.209936
0.269347
0.223009
0.789547
1.81155
10.1273
7.33936
3.60962
4.35717
5.52844
0.787731
0.840137
0.920337
0.843768
0.898342
2.13266
2.32175
2.24651
2.52334
2.99091
2.06884
1.18226
0.318534
0.328555
0.292159
0.454859
0.47188
0.310679
0.308337
0.329142
0.351503
0.414618
0.373177
0.542322
0.509188
0.595643
0.647278
0.729696
0.766512
0.276542
0.265319
0.232793
0.293498
0.281782
0.254491
0.245423
0.319437
0.236784
0.224545
0.330617
0.867936
9.84249
11.2001
7.49129
3.58597
4.45296
5.70717
0.830642
1.00247
1.18956
0.939053
1.02763
1.82949
1.47208
0.933203
1.00112
1.9927
2.18588
2.5446
2.95255
2.48319
2.13121
0.605359
0.345419
0.325259
0.44396
0.473825
0.325191
0.32834
0.349738
0.374208
0.400022
0.553597
0.513289
0.605108
0.660802
0.698565
0.758244
0.302253
0.319377
0.295074
0.248683
0.249057
0.270971
0.286962
0.259836
0.334764
0.307204
1.72589
2.4948
0.241297
0.235145
10.2517
7.29755
7.04484
11.4057
7.76151
3.63366
4.54875
5.91913
0.912761
0.805852
1.07055
1.20277
1.13502
1.4044
1.66362
1.0369
1.12286
1.908
2.14635
2.52699
3.06518
3.27095
3.08748
3.87751
0.641811
0.409811
0.348308
0.429296
0.462463
0.350668
0.346666
0.370389
0.400717
0.498965
0.540404
0.586575
0.639251
0.693383
0.739234
0.773233
0.33738
0.335561
0.262454
0.261986
0.276741
0.293221
0.31276
0.358075
0.32708
0.264367
0.361003
0.458442
10.664
7.53975
6.47381
4.31498
4.3917
11.5843
7.60072
3.71551
4.14697
4.95762
1.00671
0.876719
0.838714
1.61549
1.25986
1.35025
1.15896
1.24828
1.86929
2.11717
2.63669
3.13222
0.944679
3.87784
3.9221
4.4772
0.854608
0.45553
0.386806
0.429776
0.462374
0.371135
0.373309
0.398424
0.498412
0.539005
0.584337
0.635693
0.680297
0.713925
0.770654
0.78289
0.376176
0.37787
0.283053
0.282784
0.298944
0.315768
0.331774
0.385257
0.349434
0.332948
0.283577
0.302663
10.4477
3.29171
6.16611
5.39711
4.35535
11.7404
7.70914
3.51002
4.33029
5.22202
6.51452
1.11569
0.862337
0.976294
0.867314
1.29764
1.56127
1.41971
1.87386
2.27455
2.71537
2.99761
0.994301
4.63649
4.81274
5.59024
0.964627
0.532884
0.421956
0.460092
0.42606
0.396671
0.401677
0.49467
0.535264
0.627015
0.578133
0.667742
0.709718
0.711792
0.759966
0.82395
0.421507
0.407905
0.417834
0.304297
0.303464
0.330321
0.34941
0.372164
0.36464
0.306068
0.349444
10.9353
7.30173
2.47821
2.7169
4.9653
4.35675
3.59392
8.10778
11.6782
3.65402
4.28726
5.04612
6.20935
1.23862
0.892836
1.06792
0.919244
0.979826
1.46353
1.57339
1.37164
1.94505
2.32959
2.63831
3.13335
1.47386
5.55461
5.89846
6.51477
1.20792
0.610823
0.444733
0.463044
0.429005
0.429567
0.502864
0.534684
0.617386
0.580803
0.681161
0.711793
0.749131
0.798987
0.857111
0.474619
0.456775
0.45167
0.400131
0.330298
0.332456
0.351184
0.365318
0.381392
0.330771
0.412313
11.7556
8.623
6.4432
5.50839
1.92308
2.16862
2.59469
4.1624
3.56008
3.08902
1.56117
8.09184
11.4655
11.6747
3.6375
4.28798
5.73851
5.04662
1.19567
0.943882
1.04419
0.973716
1.51542
1.70893
1.33248
3.13816
2.00076
2.24162
2.7031
1.59787
6.75784
7.27312
8.13394
0.473386
1.44745
0.631161
0.466639
0.466565
0.554011
0.531775
0.636349
0.643753
0.598478
0.691275
0.752918
0.811265
0.537123
0.500036
0.485586
0.428654
0.414887
0.351334
0.347284
0.371955
0.394283
0.355376
0.440597
0.617021
0.702066
8.36457
6.67936
5.12869
4.42389
1.77569
2.19127
2.62916
3.42764
2.94203
1.4646
1.24731
1.07337
0.860721
0.799973
10.8309
7.80641
10.8555
8.13343
3.16462
3.67723
4.21667
5.60405
1.17295
0.996242
1.0563
1.72703
1.52246
1.33607
1.26962
2.69359
2.68788
1.97713
2.33248
1.95478
9.22468
8.37593
9.37227
0.665257
1.55648
0.501418
0.557422
0.639106
0.583255
0.686675
0.7328
0.786201
0.541475
0.52055
0.462879
0.440205
0.418149
0.380345
0.375293
0.39912
0.513449
0.38419
0.741298
0.619382
0.680215
6.409
5.41963
4.19619
3.58392
1.79217
2.24733
2.47653
2.82513
1.57428
1.23732
1.30377
0.760503
1.04561
0.825783
0.900504
8.01285
6.67113
6.2525
5.15082
3.0025
3.52707
4.60312
2.63039
1.13366
1.0573
1.64541
1.40684
1.532
1.36024
1.22197
2.36244
2.40651
2.00183
1.80389
11.3053
10.5273
11.3648
1.07516
1.74619
0.552435
0.325705
0.635578
0.700509
0.759607
0.561334
0.49899
0.479268
0.452833
0.426529
0.403019
0.396361
0.46276
0.401869
0.691125
0.616146
5.04642
5.20355
4.42532
3.43665
2.91191
1.92208
2.12035
2.36741
1.64355
1.45871
1.28052
0.768993
0.819099
1.128
0.891279
0.984568
5.79421
5.17641
5.13595
4.29851
2.32756
3.11933
3.40962
2.69069
4.32648
1.1215
1.72947
1.56774
1.47289
1.30098
1.19121
1.80687
1.99252
2.03127
1.84978
15.185
13.6375
15.6486
3.07326
0.617827
0.901197
0.681387
0.743247
0.54147
0.513411
0.483969
0.459919
0.433655
0.429523
0.471758
0.43781
0.67673
0.587682
4.25038
4.32604
3.54113
2.79965
2.41798
1.82953
2.01411
1.58802
1.39072
1.23524
0.73914
0.801274
1.10345
0.887542
0.980629
4.27265
4.13339
3.34532
1.89332
2.0972
2.38375
2.6044
3.55148
1.50034
1.37258
1.25155
1.64509
1.58003
1.79791
2.64465
20.8824
27.3961
9.45314
0.677894
1.11668
0.739176
0.560258
0.525762
0.4952
0.462855
0.458289
0.506347
0.641493
0.605448
3.51507
3.45936
2.81686
2.32353
2.0518
1.73467
1.51063
1.32712
1.17599
0.701314
0.770843
1.04884
0.849662
0.94195
3.40615
3.40175
2.78919
1.95536
2.1278
2.30828
1.81823
2.82758
1.41158
1.30882
1.5097
1.54038
1.67697
4.70918
46.1578
45.4981
21.3397
0.754601
2.342
0.566036
0.536535
0.494037
0.502083
0.618585
0.66322
0.617523
2.83005
2.81309
2.33797
1.98757
1.76637
1.53934
1.35298
1.20186
0.722681
0.795329
1.07356
0.873576
0.967579
2.78428
2.77102
2.32925
1.85494
1.98324
1.68678
2.347
1.35724
1.43021
1.45601
1.52722
1314.42
10.0963
77.9203
81.0466
51.3594
1482.04
0.57955
0.541244
0.556469
0.553662
0.8488
0.669739
0.63024
2.30199
2.32658
1.99986
1.72339
1.50583
1.33252
1.18733
0.734069
0.800822
1.07025
0.880699
0.966507
2.21336
2.23581
1.98269
1.68309
1.53065
1.95586
2.00959
1105.61
1207.55
23.4067
139.845
140.026
1581.92
1368.77
1951.41
0.594757
0.541555
0.613936
0.61064
1.41838
0.685712
0.625129
2.01128
2.00478
1.7267
1.50891
1.33495
1.1959
0.749651
0.819722
1.08029
0.982877
0.896165
1.97308
1.75619
1.5274
1.74006
1.81119
1.77997
765.486
976
1147.92
53.4555
1532.8
1304.3
1833.48
1961.67
0.621454
0.61701
0.683089
3.05388
0.69939
0.634822
1.67087
1.68281
1.48697
1.32162
1.19071
0.75048
0.83217
1.08565
0.991898
0.909469
1.76057
1.57274
1.623
1.65276
1.63803
1.61587
713.703
612.081
896.88
1138.67
1897.47
1679.17
1524.16
1292.58
1911.15
1980.99
0.66036
0.68119
0.756258
0.681863
0.700272
0.740031
1.54804
1.37307
1.2523
1.13419
0.81067
0.822035
1.06372
0.964323
0.918442
1.57055
1.5248
1.52905
1.50798
1.48163
557.956
507.671
864.037
1195.12
2190.36
1965.52
1473.48
1725.34
1572.48
1349.38
2039.03
2022.53
0.695942
0.72384
0.739428
0.761955
0.822636
1.45043
1.33284
1.23495
1.13748
0.853112
0.87821
1.06158
0.990508
0.932844
1.42033
1.38876
1.34338
2450.89
445.491
441.054
884.173
1369.65
2212.49
2138.48
1260.08
1495.97
1817.14
1713.7
1528.18
2268.96
2098.61
0.726041
0.752577
0.787714
0.820086
1.3213
1.27178
1.20439
1.13311
0.865989
0.909176
1.06607
1.00829
0.953795
2895.39
2421.23
366.6
407.007
990.178
1881.78
2276.86
2426.65
1155.69
1260.34
1549.96
1968.55
2040.62
2051.74
2678.1
2236.95
3321.86
3008.91
2396.83
314.335
408.279
1333.74
4454.4
2421.03
2930.49
989.008
1163.26
1290.29
1654.56
2223.55
2895.96
4638.43
3463.11
2480.21
3374.42
3730.19
3055.32
2413.91
292.743
487.407
3078.97
2703.2
3777.3
876.879
999.847
1193.13
1365.59
1844.79
2686.57
6776.09
5314.94
3328.25
3868.99
4149.6
3087.42
2526.17
322.07
958.445
3284.29
5364.5
596.85
869.564
1048.52
1261.83
1514.64
2207.99
3718.05
12567.3
2677.22
3691.56
4512.81
4527.4
3165.52
2828.92
573.961
4693.67
129.283
536.97
868.49
1148.89
1397.41
1807.67
3042.46
7544.61
2913.25
3105.9
4042.44
5372.85
4859.4
3400.92
3638.63
10115.1
83.7186
121.437
493.296
873.618
1332.49
1665.92
2486.75
6173.99
2432.95
3307.2
3644.74
4411.91
6530.92
5250.13
4126.36
6828.59
91.1741
88.1426
117.575
462.943
887.912
1679.29
2289.51
4978.5
1331.17
2826.85
3766.7
4314.03
4845.07
7939.54
6145.05
7109.13
97.2213
99.1874
95.7613
118.788
446.978
922.915
2459.74
4556.26
1074.49
1549.81
3270.42
4341.55
5136.64
5749.83
9646.42
9594.05
97.694
105.687
110.74
107.941
128.818
449.7
1032.72
5230.74
930.28
1170.19
1773.28
3798.73
5167.48
6152.14
7955.19
11964.3
92.3581
106.141
117.891
127.701
127.757
160.347
520.42
1298.49
947.342
1044.94
1279.5
2056.4
4444.34
6528.72
8214.48
11073.9
85.3096
100.281
118.327
135.869
154.168
163.409
249.633
1060.44
1072.05
1058.2
1171.86
1429.65
2480.42
5264.25
9351.92
18306.7
128.45
89.7417
111.807
136.293
164.025
200.823
246.35
662.697
1339.92
1171.05
1182.9
1334.57
1666.73
3221.74
6564.93
15180
577.361
121.152
97.4212
128.797
164.451
213.959
307.813
600.144
2461.12
1555.14
1283.77
1344.82
1575.37
2090.11
4717.84
11705.6
901.631
523.301
117.72
109.704
155.394
214.41
328.776
763.811
3034.99
2868.27
1775.36
1436.74
1586.22
1988.72
3014.76
9089.12
1000.69
888.337
481.82
119.342
129.698
202.381
329.347
817.163
2747.31
3553.82
3366.6
2044.04
1676.01
2002.25
2869.22
6006.48
1174.25
1015.62
885.553
452.004
129.957
165.662
310.21
817.14
3383.85
3263.25
4186.73
4060.32
2429.11
2110.84
2891.21
5719.78
1268.85
1185.48
1069.48
890.721
436.164
162.012
249.023
767.082
3312.21
3823.5
4029.22
4963.09
5096.89
3054.65
3072.11
5792.45
1486.17
1271.49
1220.45
1176.03
905.918
438.913
251.597
601.781
3216
3795.96
4411.26
5291.64
5947.12
6900.1
4313.05
6260.92
1705.85
1513.71
1305.32
1295.64
1367.81
943.976
509.484
662.146
2899.31
3593.66
4443.2
5266.67
7594.46
7503.96
12996.2
8283.57
2081.6
1891.11
1763.61
1573.76
1385.74
1439.95
1727.54
1057.64
1047.89
2436.79
3024.49
4006.19
5288.63
6581.11
12861.6
10944.7
66116.9
1696.86
2082.96
1987.32
1868.47
1684.73
1541.91
1722.52
2538.8
1341.47
2175.91
2407.09
3079.81
4432.01
6430.67
8668.6
27844.7
14147.2
1848.19
1532.38
1655.59
2103.75
2130.41
2033.01
1882.59
1847.68
2376.75
5421.4
2185.28
2380.76
3101.94
4865.97
7938.67
12079.4
77302.5
1911.79
767.206
1437.61
1435.22
1656.09
2149.77
2380.05
2303.09
2257.99
2553.15
4760.34
851.443
1214.21
2240.5
2393.9
3165.77
5380.7
9748.46
10887.1
2070.6
600.83
1323.32
1380.85
1716.73
2234.11
2818.32
2787.19
3117.49
5150.51
678.432
1084.43
2377.47
2501
3398.94
6331.54
11494.3
2344.12
480.458
1260.96
1379.14
1878.56
2385.34
3654.45
3856.82
6354.81
563.595
1004.14
2651.2
2797.37
4117.8
9617.05
2827.06
395.845
1254.54
1449.57
2243.17
2651.46
5632.33
7834.94
489.688
972.66
3216.03
3592.92
7032.67
3658.67
339.239
1321.43
1653.59
3195.23
13422.5
450.673
999.575
4585.32
6725.28
5226.08
314.825
1521.46
2238.19
7538.87
448.717
1121.91
9841.69
343.007
2101.56
5136.93
527.318
1509.31
610.019
5000.21
1009.4
3464.55
0.906034
0.866233
0.89095
0.890876
0.920136
0.916295
0.929828
0.929209
0.94715
0.833822
0.854731
0.862913
0.886671
0.89334
0.916638
0.926044
1.00141
1.02553
1.04913
1.08569
1.11288
0.946262
0.958978
0.945208
0.946339
0.95457
0.949117
0.973686
0.965983
0.992033
1.15602
1.17646
0.806147
0.828094
0.839595
0.861502
0.873007
0.892829
0.909462
0.929284
0.945686
0.964005
0.983307
1.00317
1.03319
1.05918
1.10911
1.13636
1.22581
1.24051
0.976866
0.991822
1.01139
1.02749
1.05185
1.07376
1.11436
0.972248
0.976756
0.974625
0.973646
0.99297
0.981228
1.02188
1.00875
1.04181
1.11398
1.14389
1.31069
1.3366
1.2235
1.21764
1.2993
0.786524
0.805902
0.822425
0.841336
0.858962
0.877593
0.897734
0.915335
0.943147
0.963779
0.989035
1.00912
1.07418
1.09817
1.14805
1.17111
1.24333
1.26847
1.34946
1.38614
1.4799
1.49388
1.6276
0.999361
1.00867
1.02781
1.04396
1.06908
0.997952
0.999802
1.00857
1.00126
1.03385
1.01939
1.09376
1.06965
1.05299
1.07843
1.13799
1.14206
1.22518
1.25096
1.57245
1.36602
1.48768
1.31673
1.36256
0.775546
0.793393
0.813488
0.832515
0.853501
0.871531
0.894121
0.914496
0.935658
0.960759
0.990961
1.03218
1.16386
1.10467
1.21452
1.26905
1.34323
1.36484
1.45049
1.67579
1.72325
1.74217
2.01128
2.04339
1.94638
2.09029
2.09331
2.8161
1.02165
1.03131
1.04779
1.06375
1.14623
1.118
1.02625
1.02336
1.04387
1.03342
1.09658
1.07437
1.05996
1.19813
1.16828
1.08894
1.12863
1.15992
3.64232
3.07122
5.66798
1.23227
1.23547
1.3239
1.35514
1.61067
1.64175
2.30779
1.93629
1.5525
1.61966
0.781354
0.795404
0.820557
0.836484
0.863004
0.879536
0.90895
0.928751
0.9917
0.968632
1.04764
1.07504
1.17118
1.18833
1.36953
1.36602
1.54763
1.56048
1.7329
1.76426
1.94689
22.6158
21.2037
12.4978
2.00978
2.23281
2.4082
2.67664
2.95179
3.10306
3.09182
11.6213
4.93465
1049.69
1328.22
1243.68
1827.46
1541.14
1656.01
1768.08
1836.75
1.04704
1.04919
1.07232
1.08642
1.14232
1.11815
1.05712
1.0506
1.10025
1.08145
1.07019
1.252
1.21984
1.18996
1.16376
1.10701
1.15453
1.25092
1.18781
1.24202
894.975
629.051
109.693
57.4401
25.0436
2.46064
4.08821
5.37162
14.9026
1.36701
1.37263
1.38222
1.37309
1.59675
1.63008
1.76946
1.70571
2.29242
961.164
1258.27
1472.66
1399.34
1619.8
1764.82
1798.37
1857.29
1809.35
1760.7
0.872505
0.838352
0.903182
0.891339
0.949469
0.941614
0.999882
0.995709
1.05281
1.05082
1.12048
1.11914
1.23846
1.2697
1.32031
1.33783
1.16361
1.45847
1.27093
1.32053
2.81143
2.80775
3.38518
3.81168
3.72503
58.3839
94.1695
300.469
182.546
56.3442
39.1303
6.34536
8.4012
12.1499
11.4492
36.1146
16.7673
14.8258
390.09
930.542
614.501
675.468
955.996
1183.38
1309.83
1303.23
1608.35
1596.59
1606.08
1519.17
1823.89
1883.59
1917.66
1741.6
1890.81
1811.69
1.07565
1.07597
1.097
1.113
1.14477
1.12134
1.10973
1.09199
1.0817
1.30377
1.26924
1.23593
1.20897
1.18381
1.1606
1.12807
1.17413
1.17976
1.24308
1.2481
1.31111
1.24027
185.271
492.075
331.51
848.241
525.164
92.2216
198.268
70.5763
23.7274
1.37379
17.4003
3.06425
6.21619
4.38347
1.55385
1.48378
1.66904
1.56303
1.705
1.69272
1.93375
1.7928
3.0768
949.758
1332.4
846.947
1460.88
1650.92
1261.03
1490.4
1772.37
1777.43
1795.43
1616.11
1797.49
5.16745
1.15944
103.717
29.141
2.42208
1.18647
1.78986
1.13743
1.48644
1.09033
1.32619
1.2935
1.24775
1.40529
1.37242
1.60682
2.28952
1.43269
2.74975
4.13124
4.2627
7.77383
22.2876
8.64347
9.28974
39.2811
42.654
14.8757
13.5958
19.0643
19.9615
26.6721
28.2995
122.077
185.473
344.687
238.047
132.744
83.7206
49.3143
54.2128
99.0901
66.7149
72.9993
608.433
480.441
648.85
963.326
854.291
1267.35
1172.27
1578.54
1415.59
1475.62
1678.63
1847.24
1773.73
1672.74
1856.57
1938.28
1945.31
1.13362
1.1042
1.10201
1.12192
1.14425
1.1257
1.11747
1.14607
1.3585
1.32212
1.28275
1.25211
1.22405
1.19715
1.18111
1.15871
1.40807
1.35052
1.4094
1.46357
1.4243
1.45733
1.19885
1.19443
1.20065
1.22589
1.38973
1.29785
1.33503
1.25615
505.792
397.274
234.277
35.6003
172.554
96.0659
1.47277
1.7495
1.69141
44.9606
4.39923
12.4846
7.69207
1.98088
1.89779
2.08063
2.00906
2.39647
2.10061
5.1533
465.87
1041
1313.73
901.573
645.882
1473.21
1208.33
1518.28
992.458
1796.41
1841.05
1923.2
1805.59
1665.74
222.333
246.265
58.999
11.5559
252.719
218.877
30.4893
11.1217
21.3213
6.40202
13.4826
4.23612
9.3468
2.35799
4.42295
10.1036
30.234
18.3153
37.3032
20.0398
26.5653
65.0622
101.771
111.556
56.9151
53.9395
120.639
137.44
62.5528
70.1313
95.1459
96.2174
126.465
103.595
402.417
215.658
290.821
268.97
210.86
189.652
238.921
141.08
220.58
715.41
527.219
1197.69
937.059
1045.63
1487.61
1333.54
1675.82
1590.71
1779.71
1721.02
1.43958
1.40581
1.13097
1.14767
1.15065
1.13509
1.13306
1.15821
1.17535
1.32593
1.28102
1.2634
1.22853
1.21536
1.1898
1.18094
1.16277
1.37061
1.33306
1.35303
1.3793
1.33167
1.36312
1.19329
1.20269
1.21496
1.26424
1.52073
1.38067
1.41364
1.3041
91.7081
191.381
291.472
1.63552
1.94119
1.90152
2.34689
2.31921
23.6971
102.26
7.07195
21.5961
2.58372
2.33109
4.04202
2.96195
8.17254
314.336
604.426
518.006
1137.37
1171.99
1386.99
1801.79
1939.07
1030.61
1658.89
2062.09
2000.49
2022.07
1875.25
223.087
198.725
102.354
249.123
231.568
290.702
234.682
151.642
319.663
395.975
225.186
107.479
175.414
66.7422
124.746
50.763
65.7236
89.0618
64.465
143.986
110.893
102.983
103.656
113.166
219.889
241.705
259.819
295.882
188.739
181.467
321.605
339.334
206.51
226.591
290.384
283.388
325.095
552.326
456.707
517.274
358.657
458.232
467.887
415.254
503.794
1028.9
827.361
1386.25
1239.63
1594.99
1516.27
1676.91
1611.65
1.48239
1.42109
1.37562
1.34152
1.16705
1.16277
1.16425
1.17476
1.19091
1.29984
1.27313
1.24799
1.22827
1.20865
1.19439
1.18583
1.29704
1.3165
1.2766
1.30354
1.27943
1.30286
1.20845
1.20915
1.23675
1.33505
1.25147
1.21368
1.68188
1.52486
1.54387
1.41815
1.8205
234.305
140.638
2.19336
2.22274
2.53557
2.61088
3.45167
4.11167
2.55508
26.6764
127.231
31.8972
9.78852
6.28826
28.6214
587.806
389.166
1298.31
1036.18
1760.76
1887.38
2164.78
2178.92
2253.68
2141.1
6.54812
33.2096
256.866
280.882
64.4752
236.91
310.733
252.146
417.657
447.124
256.888
338.18
455.196
436.26
454.393
299.521
376.788
278.126
242.559
227.995
388.266
290.861
400.93
332.525
340.508
455.473
503.063
502.833
531.411
448.523
427.719
379.665
594.51
611.914
472.942
491.762
631.933
628.643
821.012
927.425
805.207
768.194
834.095
745.636
807.025
1283.36
1180.9
1453.74
1385.24
1492.82
1430.82
0.890006
1.61217
1.49827
1.4598
1.41379
1.35988
1.32535
1.29072
1.18042
1.18374
1.18347
1.18499
1.21488
1.26202
1.24565
1.22496
1.21255
1.19833
1.23199
1.2533
1.2324
1.25515
1.24466
1.26406
1.21326
1.27062
1.28478
1.43091
1.25567
1.28086
1.92621
1.60176
1.67941
1.45274
2.26354
2.71057
2.82034
461.7
187.925
2.96774
2.37439
9.07727
4.359
41.8101
34.9544
22.977
142.996
231.656
81.2151
1260.51
781.042
1930.45
1712.12
2233.08
2282.48
2497.24
2452.09
3.29555
20.3763
254.282
394.879
41.0839
148.936
413.956
329.859
325.702
438.774
344.945
274.503
601.995
411.681
540.973
576.301
579.234
583.885
581.53
505.801
496.482
622.384
596.17
604.259
626.527
752.572
708.506
724.296
730.448
747.957
716.143
856.422
645.29
696.87
875.805
836.862
790.254
804.114
931.36
930.906
1010.4
1012.36
1199.22
1053.79
1070.21
1307.27
1251.42
1303.56
1258.67
0.781681
0.837014
0.893176
1.51048
1.46198
1.44294
1.40826
1.39154
1.35812
1.31211
1.25438
1.28782
1.38025
1.40434
1.19918
1.18672
1.17878
1.18025
1.21525
1.19532
1.1911
1.2015
1.21512
1.20603
1.22683
1.22243
1.23845
1.22674
1.26208
1.31069
1.40644
1.45651
1.34538
1.83781
2.31638
1.59561
1.90852
2.5875
3.69479
2.85879
3.85933
7.55348
2.04163
913.44
534.881
37.9939
15.0743
152.801
88.4528
402.642
712.732
301.687
1812.66
1579.71
2289.84
2396.36
2719.6
2712
2.41462
12.8065
215.282
451.591
24.65
97.9026
464.623
483.321
258.637
289.78
473.273
335.323
544.261
478.396
267.322
344.054
668.465
503.127
566.535
538.408
624.398
679.905
678.172
631.847
661.37
720.641
705.224
708.029
857.203
807.037
771.06
755.906
704.852
847.168
869.505
953.201
892.907
901.712
974.584
988.383
956.666
969.382
999.577
1016.46
1189.08
1142.03
1053.73
1180.35
1155.63
0.769956
0.791171
0.822781
0.890138
0.933554
1.44696
1.36857
1.35775
1.33361
1.33293
1.23058
1.2768
1.25674
1.30489
1.33148
1.31987
1.30181
1.32665
1.28939
1.28725
1.24439
1.2459
1.23088
1.1902
1.18799
1.18889
1.19276
1.22313
1.18837
1.19738
1.20447
1.21109
1.20839
1.22417
1.22854
1.2619
1.35323
1.29506
1.43105
1.57943
1.53324
1.68696
2.20737
2.72335
1.905
2.3031
3.33523
4.89702
15.286
11.0032
9.4204
21.5704
75.8931
66.0329
1708.28
1162.61
335.895
313.183
802.193
1252.04
769.451
2260.03
2455.67
2827.36
2994.3
1.95426
7.66906
164.034
428.403
14.3159
57.5932
439.861
556.648
313.495
255.49
544.12
424.48
359.274
293.959
242.566
246.836
564.12
543.037
306.533
428.565
351.346
433.525
542.42
627.398
607.829
596.668
558.784
567.556
511.521
708.443
705.109
591.505
515.914
543.226
530.32
719.206
766.787
974.332
1007.65
1004.4
985.58
990.932
1011.64
1029.68
987.045
994.389
1.32367
0.778935
0.786069
0.80611
0.833603
0.868137
0.933756
0.978633
0.801668
0.799767
0.834605
0.826238
0.874335
0.85774
1.20019
1.21132
1.15703
1.16992
1.1094
1.12627
1.05924
1.08142
0.918317
0.89693
0.964482
0.938548
1.01111
1.03354
0.98432
1.29945
1.28969
1.27294
1.28008
1.24856
1.23762
1.26403
1.25785
1.25578
1.24176
1.26506
1.21755
1.22071
1.17622
1.18212
1.22968
1.19289
1.21041
1.19137
1.20775
1.21015
1.20643
1.21302
1.21324
1.22404
1.23404
1.23271
1.23219
1.2294
1.3264
1.25612
1.48528
1.37475
1.57093
1.83262
1.72809
2.04173
2.67009
3.92717
2.41853
3.06046
4.5096
13.6141
162.518
100.886
193.772
42.9377
177.169
457.324
569.978
2306.27
1860.77
1134.32
1875.4
1214.44
2928.93
2984.19
1.5428
4.90547
413.425
102.391
196.391
8.68916
34.8278
563.451
596.231
367.433
280.786
588.923
457.239
638.699
238.571
235.137
227.396
422.461
366.633
215.417
255.261
283.476
236.707
375.724
438.179
399.155
355.187
375.472
329.602
388.086
315.698
400.739
254.021
337.304
237.598
321.489
552.472
990.647
950.115
683.237
938.698
895.169
1.23407
0.97418
1.01846
0.812879
0.821313
0.846406
0.879364
0.918066
0.831094
0.833048
0.85713
0.856489
0.891839
0.885059
1.13581
1.14849
1.09672
1.11245
1.05456
1.0721
1.01268
1.03321
0.931202
0.918302
0.970526
0.992884
0.954473
1.24803
1.23879
1.22896
1.24416
1.23665
1.20137
1.20682
1.19661
1.21977
1.16453
1.17085
1.12434
1.13403
1.23027
1.23169
1.23103
1.2425
1.2352
1.24224
1.24471
1.23702
1.24798
1.26803
1.25054
1.25264
1.24838
1.37897
1.30134
1.31069
1.63816
1.45596
1.74486
2.20394
2.08277
2.59174
3.55278
7.70851
3.16798
4.97228
9.84014
73.9959
581.971
733.527
513.957
751.879
199.771
633.249
1112.5
1417.09
1911.8
3117.59
2351.91
1.38833
2.19449
4.31926
234.522
483.91
58.2043
143.027
14.7364
543.132
662.121
344.332
251.185
633.882
390.952
665.137
623.146
511.57
507.998
197.48
214.837
283.719
247.45
179.389
191.871
201.319
179.882
237.738
264.168
251.494
223.468
214.542
199.224
170.665
160.186
142.657
124.375
166.114
118.668
708.835
194.848
506.965
2929.41
1.02132
1.09635
0.926427
0.98563
0.848517
0.863874
0.894224
0.863265
0.86649
0.88433
0.885491
0.911073
0.90982
1.0879
1.10109
1.05086
1.0689
1.01246
1.03227
0.977392
0.999767
0.944642
0.967397
0.937113
1.20964
1.20819
1.20324
1.19714
1.15771
1.17084
1.16293
1.19196
1.1228
1.13472
1.08866
1.10001
1.2324
1.21768
1.25804
1.24776
1.32395
1.297
1.34168
1.32849
1.28006
1.29648
1.34702
1.30561
1.27883
1.37924
1.29812
1.29845
1.52549
1.51902
1.84075
1.82295
2.61798
2.47184
3.95717
2.96787
5.65805
18.1453
4.42045
8.11484
52.1781
253.726
504.26
1295.07
1409.93
1181.19
1232.55
1611.34
1964.04
2219.29
29.3419
1.17923
1.22173
2.01634
2.71177
8.89764
376.896
91.6307
184.818
625.219
436.749
230.091
299.22
634.201
654.256
319.843
410.428
664.057
607.54
527.028
419.947
171.518
194.332
187.612
178.235
153.366
157.352
152.088
152.943
156.3
166.758
118.738
122.03
95.7501
96.1667
85.781
82.9705
112.636
84.2648
1.00106
1.0621
0.891114
0.91278
0.955974
0.896773
0.913354
0.914034
0.916627
0.93245
0.934809
1.05517
1.07045
1.01973
1.04279
0.989486
1.0109
0.962428
0.983654
0.957072
1.20642
1.18319
1.18143
1.18428
1.12978
1.14633
1.17926
1.14624
1.09631
1.11461
1.06782
1.08325
1.26472
1.24105
1.24061
1.30512
1.27991
1.41893
1.40543
1.39392
1.42643
1.55325
1.50058
1.50335
1.4649
1.43973
1.37244
1.33805
1.51314
1.45063
1.56301
2.04076
1.79222
3.34731
3.48261
2.43064
3.27221
5.41157
5.82791
23.8461
73.2679
19.5181
202.554
416.109
745.438
1413.62
1952.88
1974.64
2294.77
8028.69
136.894
1.10005
17.5408
45.8347
1.21645
1.31465
1.38291
2.22905
3.11297
7.98855
372.882
258.487
642.201
584.514
200.736
254.1
699.533
679.925
276.61
367.962
641.873
559.97
427.475
146.727
170.525
125.893
129.959
129.496
119.651
103.216
106.028
85.9989
89.7197
80.5133
81.7626
79.4797
82.2292
1.05218
0.934984
0.98016
1.01465
1.0257
0.932197
0.953272
0.943816
0.951629
0.958047
0.959537
1.03392
1.05668
1.00778
1.03025
0.981664
1.00498
0.980629
1.06155
1.17896
1.17792
1.18516
1.16167
1.13988
1.11595
1.1885
1.11464
1.09515
1.09131
1.25975
1.22244
1.28803
1.32964
1.33372
1.41536
1.39942
1.55822
1.59872
1.65594
1.6311
1.84584
1.84295
1.78108
1.59548
1.55465
1.75576
1.71595
1.89055
1.88069
2.64345
2.56045
6.39133
6.57392
6.10581
4.62011
35.66
26.2521
263.547
163.488
595.269
765.684
1122.81
1978.4
272.167
80.8994
134.7
1.25313
1.17048
12.4415
38.5994
1.34053
1.6254
2.19748
2.65449
7.94728
551.234
429.644
715.172
694.74
176.605
232.064
728.904
653.267
532.416
417.866
274.588
125.224
145.496
97.8966
107.161
104.577
86.4606
90.1914
84.3608
84.9518
85.9956
87.6822
1.11752
1.17903
0.983597
0.997917
1.06972
1.13905
0.97644
0.990815
0.977257
0.989997
0.989313
0.99575
1.05683
1.03962
1.01758
1.03431
1.01198
1.25346
1.09514
1.0789
1.0786
1.16911
1.17901
1.14515
1.23412
1.18701
1.15806
1.12808
1.34369
1.33082
1.42558
1.39687
1.5205
1.5025
1.72202
1.6709
1.92237
2.02196
2.53218
2.33971
2.21537
1.99882
1.91846
2.09322
2.08837
2.41792
2.49394
2.4639
5.28474
4.20862
38.7862
13.107
17.9128
10.3653
284.579
155.19
749.719
518.981
1064.81
943.133
417.529
191.949
282.817
63.0288
124.063
1.43076
1.27473
11.9051
32.5259
2.60756
1.5241
5.38764
676.882
581.311
757.601
774.642
237.919
173.916
144.468
736.571
544.144
440.063
309.74
254.393
102.059
116.779
87.1448
91.0242
85.7303
85.571
90.9555
89.4904
1.21426
1.32713
1.02666
1.08515
1.13919
1.25578
1.02506
1.0551
1.03566
1.01034
1.04942
1.04773
1.08204
1.05597
1.07429
1.3301
1.28883
1.14467
1.12968
1.14664
1.13443
1.19898
1.26823
1.18087
1.20499
1.17425
1.51781
1.51178
1.44927
1.67374
1.62398
1.86332
1.99387
1.94557
2.34834
2.28627
4.18445
3.21126
3.31406
3.00422
2.81798
2.70872
3.82486
3.86242
3.74921
3.38921
6.41416
23.2445
16.3798
199.937
89.9078
93.9159
585.996
408.569
960.466
783.703
342.176
538.441
645.355
163.793
314.262
48.8067
114.64
1.45641
1.82983
7.57568
31.144
2.02587
4.613
794.968
768.183
795.39
775.629
851.112
149.882
174.933
115.957
660.577
503.242
333.862
280.205
171.015
87.3743
97.3337
85.3369
83.4514
91.4509
88.5992
1.35647
1.58511
1.09908
1.17477
1.2545
1.43031
1.11181
1.08642
1.14939
1.14371
1.14104
1.13664
1.12917
1.42662
1.32343
1.19916
1.21027
1.18004
1.23739
1.31057
1.2583
1.31311
1.25192
1.85105
1.75916
1.718
1.57849
2.2893
2.59666
2.39954
2.6106
2.97028
2.79632
3.89534
3.33785
4.94451
5.47233
5.37707
3.63217
8.23548
8.53419
6.61517
75.8826
38.2901
201.065
183.421
507.671
398.793
798.887
707.621
365.548
547.752
677.085
165.428
323.577
45.0706
113.826
2.51111
1.83261
7.94443
5.32374
24.0462
672.128
890.13
880.676
890.153
814.831
864.361
702.841
898.885
126.719
97.0576