/*--------------------------------*- C++ -*----------------------------------*\
  =========                 |
  \\      /  F ield         | OpenFOAM: The Open Source CFD Toolbox
   \\    /   O peration     | Website:  https://openfoam.org
    \\  /    A nd           | Version:  8
     \\/     M anipulation  |
\*---------------------------------------------------------------------------*/
FoamFile
{
    version     2.0;
    format      ascii;
    class       volScalarField;
    location    "6000";
    object      nut;
}
// * * * * * * * * * * * * * * * * * * * * * * * * * * * * * * * * * * * * * //

dimensions      [0 2 -1 0 0 0 0];

internalField   nonuniform List<scalar> 
4109
(
0.000666622
0.000661487
0.000658827
0.000666316
0.000669017
0.000677405
0.000672445
0.000677786
0.000675051
0.000657101
0.000666936
0.000678544
0.000668885
0.000671417
0.000676645
0.000677636
0.000665973
0.000673717
0.000679224
0.000675739
0.000660144
0.000678637
0.000673985
0.000678073
0.000673687
0.000668225
0.000656503
0.000672637
0.000677786
0.000681378
0.000677352
0.000677058
0.000665119
0.00067127
0.0006774
0.000682465
0.000673909
0.000667057
0.000667195
0.000670338
0.000667494
0.000662781
0.000674011
0.000681482
0.000678131
0.00148609
0.000802411
0.000677802
0.000677454
0.000661439
0.000673116
0.000677465
0.000676971
0.000672724
0.000675371
0.000661431
0.000661575
0.000678053
0.000676408
0.000669715
0.000675359
0.00196424
0.000684655
0.000680091
0.000679297
0.000695077
0.00123472
0.000678704
0.000673479
0.000659803
0.000671612
0.000678935
0.000689437
0.000677355
0.000679782
0.000673515
0.000670617
0.000667121
0.000648701
0.000674918
0.000679423
0.000679847
0.000675746
0.000668644
0.000728752
0.000739174
0.00152768
0.00193019
0.00194808
0.000684498
0.000685495
0.000680569
0.000680258
0.00068046
0.00065578
0.000945888
0.000676848
0.000660903
0.00069215
0.000686003
0.000682332
0.000686539
0.000692451
0.000684845
0.000673052
0.000676288
0.000674497
0.000664956
0.000657025
0.000678699
0.000653279
0.000680782
0.000680665
0.000677041
0.00067072
0.00209733
0.00082548
0.000989838
0.00126717
0.00197048
0.0020104
0.000670064
0.000687796
0.000689215
0.000682885
0.000682035
0.000681575
0.0006771
0.000939178
0.000634927
0.000665078
0.000692982
0.000689521
0.000694141
0.000692902
0.000681225
0.000689443
0.00067653
0.00067373
0.000673219
0.000659842
0.00067766
0.00068166
0.0006815
0.000682121
0.000678212
0.000671111
0.0017569
0.00102458
0.00194688
0.00131333
0.0020112
0.000803391
0.000690524
0.000688853
0.000683248
0.000682935
0.00068298
0.000681126
0.000664765
0.000819276
0.00064241
0.000694228
0.000690487
0.000696296
0.000694303
0.000695497
0.000696317
0.000680837
0.000679227
0.000676967
0.00067097
0.000655574
0.000680022
0.000674671
0.000683537
0.000683206
0.000678964
0.000673506
0.00118908
0.00227612
0.0012157
0.00194048
0.00199558
0.000751476
0.000685815
0.000686142
0.000684843
0.000682641
0.000684504
0.000668441
0.000861118
0.000646991
0.000688896
0.000689207
0.000697155
0.000692025
0.000697555
0.000700321
0.000691743
0.000685022
0.000679231
0.00067685
0.000673287
0.000662586
0.000682557
0.000676039
0.000684286
0.000684252
0.00068152
0.000673597
0.00116451
0.00214423
0.00198175
0.00117318
0.00202822
0.000747322
0.000685985
0.00068805
0.000685588
0.000671735
0.000857736
0.000638932
0.000689096
0.00069111
0.000692439
0.000692302
0.000695298
0.000700714
0.000698417
0.000702046
0.00068664
0.000682457
0.000679883
0.000674962
0.000659728
0.000685245
0.000672569
0.000685583
0.000685895
0.000682374
0.000683523
0.000676451
0.0010974
0.00216638
0.00120687
0.001968
0.00201435
0.000729762
0.000688587
0.000688756
0.000679209
0.000857687
0.000657376
0.000692168
0.00069162
0.000694056
0.000695804
0.000695599
0.000695854
0.000701318
0.00070361
0.000696693
0.000693041
0.000682291
0.000678415
0.00066624
0.0006835
0.000688396
0.000674374
0.000687144
0.00068507
0.000676339
0.000685538
0.00218327
0.00104693
0.00198905
0.00118782
0.00204002
0.000724256
0.000782843
0.000674551
0.000681423
0.000851295
0.000659345
0.000692712
0.00068986
0.00069459
0.000698599
0.000699195
0.00069712
0.000698764
0.000704659
0.000703081
0.000707616
0.000698337
0.000692275
0.000662496
0.000680371
0.000675035
0.000684961
0.000685327
0.000692614
0.000673994
0.000690215
0.00067952
0.000687189
0.00101593
0.00217117
0.00196086
0.00114731
0.00201512
0.000713275
0.000754227
0.000791965
0.000796536
0.000776138
0.000781047
0.000789428
0.00093417
0.000660483
0.000632043
0.000675289
0.000662225
0.000688259
0.000694413
0.000701225
0.000696716
0.000699048
0.000710218
0.000699522
0.000705478
0.000710252
0.000707384
0.000699009
0.000706458
0.000701032
0.000673297
0.000677395
0.00068629
0.000688454
0.000679284
0.000694701
0.000677223
0.00069102
0.000689165
0.000986193
0.00223344
0.00196223
0.000704552
0.000781649
0.000845627
0.000776562
0.000788894
0.000787184
0.000805403
0.000707786
0.000723056
0.000731182
0.000762507
0.000766352
0.000739405
0.000774973
0.000783626
0.00147104
0.00061626
0.000602388
0.000642291
0.00069446
0.000712885
0.000697951
0.000699963
0.000702224
0.000700739
0.000709239
0.000702444
0.000709218
0.000715881
0.00071441
0.000708488
0.000719718
0.000730565
0.000729091
0.000666377
0.000682994
0.000689837
0.000688671
0.000682667
0.000690363
0.000696159
0.000674243
0.000694434
0.000954631
0.00236986
0.000812917
0.000817778
0.000783554
0.000782797
0.000801207
0.000722358
0.000710015
0.000739573
0.00072885
0.00073474
0.000743961
0.000750938
0.00078008
0.000773021
0.000771031
0.0025138
0.00108286
0.000550067
0.00061712
0.00068515
0.000713753
0.000713381
0.000700484
0.00070415
0.00070036
0.000702779
0.00070872
0.000703469
0.000718359
0.000718383
0.000723985
0.000723503
0.000728303
0.000726314
0.00067846
0.000685221
0.000693822
0.000693995
0.000691274
0.000682441
0.00069246
0.000696406
0.000699831
0.000700013
0.00067645
0.000981785
0.000792404
0.000845205
0.000813598
0.000783767
0.000789003
0.000800714
0.000729181
0.000719264
0.000725845
0.00073684
0.000740067
0.000740451
0.000729982
0.000732529
0.000734725
0.000755152
0.000775065
0.000770398
0.000767088
0.00240632
0.0018875
0.000629168
0.000630135
0.000682805
0.000713236
0.00071153
0.000699839
0.000703769
0.000705576
0.000704536
0.000706444
0.000716621
0.000717352
0.00072241
0.000722517
0.000722847
0.000726498
0.000672547
0.000695167
0.000691413
0.000696603
0.000697503
0.000685975
0.000685735
0.000693737
0.000697294
0.0006897
0.00150546
0.00177869
0.00070374
0.000651912
0.000816201
0.0008158
0.000834058
0.000843411
0.000818474
0.000779392
0.000787528
0.000804596
0.000732341
0.000729804
0.000734656
0.00074018
0.000749291
0.000738791
0.000754095
0.000735516
0.0007412
0.000764273
0.000759209
0.000770821
0.000774489
0.00278696
0.00217936
0.00237007
0.000591561
0.000604186
0.00067603
0.000707724
0.000710786
0.00070338
0.000708575
0.000705659
0.000706809
0.000712341
0.000715506
0.000717361
0.000720665
0.000723511
0.00072844
0.000729592
0.000686519
0.000689663
0.000704262
0.000697061
0.000696095
0.00069662
0.000699742
0.000705148
0.000689766
0.000692919
0.000650503
0.000609065
0.000833277
0.000811154
0.000822821
0.000772177
0.000753121
0.000853262
0.000810039
0.000783689
0.000786126
0.000799478
0.000735317
0.000733734
0.000732548
0.000762816
0.00074474
0.000749484
0.000739535
0.000741817
0.000760119
0.000755395
0.000767055
0.000773012
0.00072149
0.00284954
0.00248777
0.00250262
0.000636265
0.000600375
0.000674828
0.000708724
0.000711171
0.000707928
0.000700745
0.00070974
0.000713253
0.000715882
0.000718168
0.000720999
0.000724377
0.000726665
0.000730681
0.000732653
0.000677461
0.000699524
0.00070135
0.00070218
0.000701214
0.000703283
0.000702603
0.000701552
0.000690972
0.000698243
0.000698538
0.000682285
0.000833755
0.000762114
0.000775929
0.000825512
0.000768338
0.000858778
0.000806156
0.000785537
0.000791953
0.000800142
0.000808147
0.000738785
0.000736163
0.000736587
0.000732747
0.000742884
0.000752132
0.000748784
0.000759373
0.000764204
0.00077204
0.000772974
0.00069965
0.0029053
0.00258017
0.0026478
0.000610631
0.000589495
0.000668021
0.000714166
0.000709995
0.000712522
0.00070761
0.000714458
0.000718745
0.000723482
0.000719201
0.000724656
0.000729711
0.000729242
0.000734192
0.000737182
0.000690588
0.0006943
0.000709379
0.00070781
0.000704253
0.000705805
0.000709927
0.000693733
0.000695739
0.000699236
0.000655071
0.00082534
0.000807001
0.000754352
0.000745641
0.000768304
0.000808853
0.000760515
0.000818821
0.00084857
0.000783231
0.000794061
0.00079613
0.000809212
0.000741998
0.000737883
0.0007391
0.000738971
0.000738733
0.00074731
0.000747499
0.000745284
0.000756144
0.000765072
0.000775426
0.00077977
0.000796889
0.00293697
0.00277189
0.00267164
0.000640313
0.000581628
0.000682366
0.00071571
0.000712706
0.000705245
0.000715772
0.000719126
0.000722539
0.000720526
0.000726677
0.000731712
0.000734371
0.000735653
0.000738368
0.000685476
0.000706242
0.00070806
0.000694951
0.000708174
0.000706523
0.000708097
0.000704475
0.000699423
0.000700358
0.000650099
0.000845329
0.000821365
0.000823159
0.000792267
0.000736472
0.000737744
0.000751785
0.000773107
0.000801711
0.000773511
0.000735648
0.000829516
0.000837311
0.000849638
0.000782745
0.000796472
0.000798009
0.000798372
0.000743635
0.000740385
0.000737117
0.000738383
0.000747728
0.000753438
0.000746811
0.000783374
0.000761238
0.000761566
0.000773242
0.000720934
0.00298091
0.00287774
0.00282519
0.000682837
0.000615371
0.000594927
0.000721142
0.00071227
0.000722621
0.000718704
0.000725864
0.000726003
0.000723093
0.000732464
0.000734354
0.000735737
0.000700274
0.000704206
0.000713071
0.000697667
0.000700476
0.000712301
0.000707509
0.000709267
0.000715088
0.000700203
0.000645316
0.000694303
0.000705103
0.00082477
0.000810524
0.000811036
0.00078288
0.000733993
0.00075163
0.000771076
0.000765716
0.000792585
0.000723135
0.00072049
0.000719677
0.000711725
0.000703352
0.000833502
0.000814181
0.000830033
0.000815876
0.000786427
0.000785195
0.000787096
0.000784132
0.000745601
0.000741332
0.000743365
0.000755038
0.00075122
0.000749793
0.00074309
0.000772467
0.000772577
0.000765881
0.000769388
0.000861911
0.00308051
0.00301784
0.00266116
0.00060167
0.000591601
0.000716407
0.000668602
0.000733369
0.000721327
0.000731
0.000734063
0.000737601
0.000699793
0.000716518
0.000699384
0.000702584
0.000708991
0.000713352
0.000710726
0.000712196
0.000647418
0.00070036
0.000704605
0.000705744
0.000704582
0.000810358
0.000803001
0.000801587
0.000773699
0.000731446
0.000758601
0.000788226
0.000758369
0.000739198
0.000722787
0.000722326
0.000714225
0.000711871
0.000701136
0.000712633
0.000819152
0.000851431
0.000813152
0.000820597
0.000772634
0.000775945
0.000779165
0.000764174
0.000744145
0.000743613
0.000752779
0.000747537
0.000753148
0.000748821
0.000747914
0.000773077
0.000774199
0.000764009
0.000600664
0.00301782
0.00303528
0.00271893
0.000583619
0.000579217
0.000739748
0.00103259
0.000729074
0.000734089
0.000737361
0.000726354
0.000701943
0.000705363
0.000719139
0.000713343
0.000717107
0.000710644
0.000668289
0.000709529
0.000715242
0.000722546
0.000798206
0.000800707
0.000795473
0.000791689
0.000765053
0.00076085
0.000779182
0.000751578
0.000743675
0.000753169
0.000736905
0.000726932
0.000734466
0.000729807
0.00072856
0.000729323
0.000780501
0.00080262
0.000785539
0.000810352
0.000764549
0.00076335
0.000772525
0.000767059
0.000786337
0.0007447
0.000759009
0.000754338
0.000753462
0.000751402
0.000747543
0.000761087
0.000763733
0.000762832
0.000652
0.0031659
0.00311468
0.00308797
0.000521595
0.000730972
0.000624388
0.000737299
0.000739589
0.000704122
0.000706802
0.000713763
0.000716704
0.000718305
0.000715131
0.000681464
0.000709605
0.000731107
0.000706684
0.000796965
0.000794569
0.000788689
0.000778046
0.000756886
0.000774881
0.000746095
0.000767532
0.000764999
0.00075651
0.000736836
0.000740971
0.000751557
0.000743502
0.000747355
0.000811957
0.000786016
0.000803334
0.000757013
0.000755443
0.000762665
0.000778092
0.000778295
0.000754648
0.000751565
0.000747881
0.000756304
0.000753959
0.000752845
0.000541478
0.00315374
0.00451627
0.000982954
0.000747211
0.000624577
0.00074293
0.000710469
0.000723583
0.000717953
0.000724021
0.000714952
0.000687652
0.000709299
0.000711613
0.000785508
0.000782357
0.000777861
0.000770986
0.000751427
0.000740671
0.000736378
0.000731843
0.000728245
0.000711949
0.000714869
0.000724374
0.000717777
0.00072109
0.000778716
0.000794243
0.000788784
0.00075298
0.000759067
0.000774432
0.000752274
0.000774514
0.000752664
0.000748297
0.000751739
0.000750803
0.000752073
0.000756263
0.00543043
0.00515294
0.00141655
0.000765294
0.000573443
0.000718993
0.000721464
0.000716404
0.000720209
0.000692826
0.000715807
0.000728339
0.00078169
0.000783999
0.000769992
0.000762461
0.000745371
0.000741587
0.000736439
0.000733801
0.000716941
0.000721389
0.000729071
0.000722717
0.0007273
0.000768415
0.000776976
0.000780054
0.000761135
0.000763823
0.000753084
0.000769159
0.000747996
0.000747101
0.000746548
0.000749368
0.00112687
0.00097906
0.00628479
0.00682735
0.00239502
0.00122808
0.000722932
0.000720011
0.000727585
0.000725507
0.000632152
0.000724663
0.0007265
0.000766126
0.000767333
0.000764502
0.000760206
0.000752361
0.000751606
0.000743994
0.000733394
0.000730727
0.000744563
0.000738681
0.000737047
0.000768886
0.000764093
0.000769744
0.000759114
0.000750436
0.00075362
0.000760966
0.000871409
0.000966711
0.00155519
0.00833101
0.00824033
0.0013578
0.00103474
0.00190878
0.000724318
0.000722462
0.000726676
0.000734786
0.000564476
0.000728244
0.000724396
0.000769562
0.000767398
0.000759356
0.000754433
0.000749872
0.000746371
0.000731887
0.000733979
0.000742773
0.000739921
0.00073696
0.000766272
0.000765846
0.000757014
0.0007548
0.00075496
0.000758227
0.000575856
0.000754575
0.000793207
0.0024553
0.00119626
0.000836347
0.00188699
0.00179726
0.000728776
0.000725072
0.000749352
0.000536491
0.00073077
0.000726196
0.000755613
0.000757067
0.000754632
0.000749544
0.000747144
0.000729115
0.000736721
0.000742528
0.000741541
0.000736524
0.000765151
0.000762563
0.000749426
0.000763755
0.000750749
0.000752232
0.00047333
0.000481699
0.00062545
0.000612693
0.000561981
0.00184236
0.000996387
0.00063873
0.00161917
0.00166805
0.000729452
0.000736928
0.000767657
0.000732451
0.000731867
0.000731431
0.000756101
0.000749955
0.000748684
0.000743728
0.000737027
0.000732882
0.000743406
0.000739524
0.000737736
0.000760134
0.000748736
0.000759779
0.000747323
0.000747857
0.000374419
0.000387188
0.000487774
0.000432043
0.00163635
0.000406787
0.00191215
0.00153339
0.000776417
0.000447339
0.00133284
0.00152392
0.000725603
0.000745317
0.0007311
0.000733566
0.000735272
0.000750786
0.000749783
0.000749192
0.000745041
0.000737949
0.000737593
0.000743947
0.000740854
0.000739965
0.000755116
0.000745847
0.000742821
0.00138675
0.000287846
0.000294465
0.000346583
0.000258397
0.00141382
0.000280421
0.00197259
0.00159876
0.00122105
0.000550732
0.000267531
0.00103024
0.00136442
0.000739045
0.000729005
0.000734995
0.000731145
0.000740011
0.000742338
0.000745446
0.00074354
0.000736341
0.000737014
0.000743289
0.000740247
0.000740391
0.00141056
0.00115371
0.00021416
0.000204411
0.000207641
0.000103103
0.00116624
0.000183708
0.0020284
0.00164683
0.00128529
0.000922144
0.000332106
0.00010873
0.000728003
0.00118285
0.00162016
0.00114866
0.000939181
0.000150818
0.000119976
8.139e-05
7.25039e-06
0.000908398
0.000109495
0.00223957
0.001697
0.00132344
0.00098021
0.000643953
0.000138628
8.7237e-06
0.000443201
0.000977892
0.00189982
0.00129665
0.000928272
0.000734206
9.26497e-05
4.46847e-05
4.63509e-06
0.000653165
5.7509e-05
0.0012556
0.00194707
0.00136941
0.0010091
0.000691597
0.000392988
1.45477e-05
0.000197862
0.00257255
0.00147368
0.00102262
0.000727891
0.000534199
3.76539e-05
1.52166e-06
0.000408084
3.12031e-05
0.00113314
0.000963888
0.00160764
0.0010507
0.000712212
0.000426934
0.000178141
3.37996e-05
0.0042547
0.00197188
0.00111919
0.000798757
0.0005393
0.000341552
1.08612e-06
0.000186905
0.00141733
0.00094735
0.000716807
0.0012465
0.000746594
0.000440586
0.00019664
2.72817e-05
0.00438254
0.00366665
0.00146696
0.000820702
0.000599989
0.00035729
0.000162359
2.6292e-05
0.00183978
0.00121074
0.000772482
0.000507445
0.000886756
0.000465265
0.000204825
3.21046e-05
0.00546692
0.00366301
0.00300724
0.00104952
0.000579479
0.000414109
0.000181677
2.4278e-05
0.00217779
0.00146715
0.00100062
0.000604805
0.000331549
0.000550653
0.000218711
3.50737e-05
0.00451729
0.00470131
0.00292845
0.00234641
0.000710061
0.000394275
0.000229539
3.46993e-05
0.0023627
0.00172919
0.00112089
0.000785302
0.000441624
0.000188064
0.000260341
3.9535e-05
0.00400153
0.00376526
0.00389145
0.00221449
0.00173574
0.000415386
0.000242317
6.24881e-05
0.00238555
0.00187164
0.00131702
0.000808094
0.000560755
0.0002854
7.85088e-05
5.33383e-05
0.00381883
0.00336732
0.00301126
0.00309155
0.00156823
0.00119341
0.000209177
8.85782e-05
0.00222802
0.00189042
0.00142246
0.000947995
0.000533774
0.000326934
0.00013069
1.52297e-05
0.00377006
0.0032045
0.0027011
0.00225711
0.00233401
0.00101276
0.000647908
8.02271e-05
0.00186878
0.00177233
0.00143751
0.00102198
0.000626272
0.000301662
0.00012439
1.38363e-05
0.00394458
0.00316269
0.0025699
0.0020489
0.00154843
0.00164002
0.000552311
0.000141259
0.00142724
0.0014903
0.00135217
0.0010335
0.000674068
0.000354755
0.000117221
9.39175e-06
0.00437282
0.00329219
0.00253505
0.00195189
0.00143709
0.000928362
0.00096024
0.000214819
0.00109244
0.00121605
0.00113908
0.000975066
0.000682269
0.00038129
0.000139651
9.39167e-06
0.00524927
0.00364473
0.00262854
0.00192442
0.00137222
0.00088981
0.000449211
0.000258545
0.00125119
0.000913543
0.00100251
0.000821996
0.000645278
0.000386395
0.00015051
1.31747e-05
0.00408197
0.00451463
0.00291775
0.00198683
0.00135191
0.000852488
0.000435693
0.000143446
0.00220888
0.000961776
0.000746231
0.000784756
0.000543531
0.000366302
0.00015287
1.51713e-05
0.00401417
0.00330658
0.00368375
0.00220829
0.00138809
0.000838502
0.000418871
0.000125054
0.00202486
0.0019117
0.000713028
0.000585217
0.000558064
0.000307665
0.000144939
1.56565e-05
0.00253859
0.00337276
0.00253458
0.00281574
0.0015575
0.00085187
0.000410415
0.00012019
0.00194535
0.00168962
0.0015726
0.000503563
0.00042747
0.000324366
0.00012024
1.42459e-05
0.00192687
0.00189781
0.00260637
0.00181615
0.00196159
0.00099234
0.000409247
0.000115777
0.00187624
0.00161793
0.00135863
0.00121487
0.000328607
0.000275852
0.000123384
1.00567e-05
0.00169454
0.00150122
0.00133094
0.00179473
0.00120811
0.0011562
0.000520686
0.00011141
0.00181157
0.00156266
0.00129531
0.00103896
0.000861616
0.000186276
0.000125366
9.38443e-06
0.00141579
0.00136219
0.0011467
0.000864924
0.00105806
0.000697001
0.000393841
0.000163279
0.00191326
0.00186856
0.00150151
0.00125161
0.000984467
0.000736049
0.000533208
7.70952e-05
1.26008e-05
0.00139072
0.00115046
0.00106989
0.000853014
0.000508451
0.000478552
0.000304113
3.52871e-05
0.00137002
0.00179335
0.00159702
0.00119073
0.000951522
0.000692419
0.000457025
0.000249952
1.39576e-05
0.00161505
0.00115643
0.000928479
0.000821057
0.000606953
0.000267025
0.000146797
8.94955e-05
0.000566017
0.00120786
0.00119358
0.00165774
0.00131043
0.000896199
0.000669293
0.000426027
0.000213199
4.94583e-05
0.00140779
0.000941375
0.000731131
0.000605497
0.000410669
0.000137309
4.02174e-05
0.000408357
0.000501505
0.00116318
0.00101653
0.000985537
0.00150879
0.0010096
0.000624272
0.000411386
0.000196407
3.72609e-05
0.000630499
0.000940874
0.00116918
0.000736477
0.00054453
0.000409695
0.000252379
9.46011e-05
0.000280042
0.000399707
0.000994833
0.000819451
0.00076299
0.00134489
0.000710681
0.000380249
0.000188083
3.21271e-05
0.000523455
0.000815872
0.000914599
0.000536485
0.00036114
0.000227108
9.66587e-05
0.000183532
0.000308879
0.000814228
0.000623508
0.000537587
0.0011607
0.000430389
0.000171695
2.93578e-05
0.000418948
0.000677296
0.000659872
0.000343275
0.000183976
6.45667e-05
0.000109871
0.000231161
0.000627614
0.000434803
0.000321838
0.000953847
0.000189814
2.53535e-05
0.000317674
0.000528773
0.000413457
0.000163501
3.60937e-05
5.95547e-05
0.000163992
0.000441707
0.000258554
0.000132429
3.08789e-05
0.00022048
0.000376424
0.000190283
2.47263e-05
3.2253e-05
0.000101612
0.000263595
0.000103702
1.30159e-05
0.000130237
0.000226769
2.73934e-05
4.19059e-05
0.000105294
7.69086e-06
4.95966e-05
9.0525e-05
1.35774e-06
7.52693e-06
1.96946e-06
5.85698e-06
0.000739588
0.000739069
0.000740661
0.000740886
0.000741782
0.000740994
0.000741169
0.000742209
0.000740029
0.000738891
0.000740177
0.000740637
0.00074146
0.000741405
0.000742017
0.000744871
0.000758723
0.000764142
0.000768458
0.000778221
0.00078202
0.000744
0.000747459
0.000741948
0.000743732
0.000742493
0.000740669
0.000742165
0.000743593
0.000741022
0.000794515
0.000798723
0.000740024
0.000740088
0.000740996
0.000741209
0.000742342
0.000742152
0.000745564
0.000748112
0.000751264
0.000753326
0.000756774
0.000764369
0.000771698
0.000775682
0.000789545
0.000793996
0.000819024
0.00082095
0.000750104
0.000753159
0.000755798
0.000759581
0.000764053
0.000771565
0.000780727
0.000743756
0.000747904
0.000741674
0.000742637
0.000742634
0.000740883
0.000743437
0.000744616
0.00074238
0.000778281
0.000786236
0.000840184
0.000849126
0.000808808
0.000808845
0.000833518
0.000739881
0.000740635
0.000741249
0.000742469
0.000743913
0.000745483
0.000749447
0.000751002
0.000757969
0.000759938
0.000764888
0.000770569
0.000786354
0.000792145
0.000807897
0.000809405
0.000831188
0.000834036
0.000860251
0.0008695
0.00090685
0.000900051
0.000923192
0.000747041
0.000751963
0.000753486
0.000758207
0.000763775
0.000743762
0.000746852
0.000741635
0.000741948
0.000743588
0.000741543
0.000744497
0.000744468
0.000744743
0.000763738
0.000780067
0.000780923
0.000803467
0.000811542
0.000906079
0.000853184
0.000892851
0.000835638
0.000850509
0.00074289
0.000743162
0.000745435
0.000746176
0.000750146
0.000750597
0.000757215
0.000756245
0.000766295
0.000762585
0.000776185
0.000779756
0.000816105
0.000811567
0.000835057
0.000837153
0.000857537
0.000866316
0.000886177
0.000897374
0.000950785
0.000952285
0.0010002
0.00101937
0.000983362
0.00102584
0.00103221
0.00122917
0.000746523
0.000751758
0.000753082
0.000756977
0.00074594
0.000745379
0.000743833
0.000746528
0.000742158
0.000741969
0.000744434
0.00074375
0.000741999
0.000746274
0.000745148
0.00076093
0.000772031
0.000780453
0.00152835
0.00135216
0.00150215
0.000800576
0.000803218
0.00083086
0.000844901
0.000907008
0.00091955
0.00106699
0.000972685
0.000861844
0.000910127
0.000750673
0.000748161
0.000754305
0.000750836
0.000759274
0.000754538
0.000764737
0.000762346
0.000765716
0.000770904
0.000780545
0.000783673
0.00079246
0.000817314
0.000845744
0.000820837
0.00085007
0.000970446
0.000970971
0.000964779
0.00103128
0.00202984
0.00209301
0.00175562
0.00118042
0.00118109
0.0012993
0.00124935
0.00125152
0.00137709
0.00138958
0.00186934
0.00156538
0.00355223
0.00332322
0.00339966
0.00210647
0.0029965
0.00280578
0.00246309
0.00212329
0.000746575
0.000750836
0.000750457
0.000755435
0.000744147
0.000743567
0.000743951
0.000745659
0.000742594
0.000742567
0.000742169
0.000746426
0.00074544
0.000744281
0.000743668
0.000760326
0.000773826
0.000803104
0.000781695
0.000798241
0.00366316
0.00367482
0.00284449
0.00272651
0.00214537
0.00111886
0.00137304
0.00156638
0.00192718
0.000837914
0.000839655
0.000848672
0.000847641
0.000891997
0.000903278
0.00099319
0.00097713
0.00105786
0.00363304
0.00342497
0.00126151
0.0032821
0.00288467
0.00263634
0.00148375
0.0017903
0.00189194
0.00263069
0.000779563
0.000766976
0.000783172
0.000769828
0.000785867
0.000774989
0.000789602
0.00078989
0.000797978
0.000795408
0.000810317
0.000809889
0.000848057
0.000876087
0.000928578
0.000900964
0.00114091
0.00133196
0.00110007
0.00173971
0.00142775
0.00132841
0.00163089
0.00146226
0.00143886
0.00252524
0.00304925
0.00350319
0.00304443
0.00268146
0.00228384
0.00180612
0.0016708
0.00184481
0.00200661
0.00259988
0.00190791
0.00204264
0.00348497
0.00355012
0.00361248
0.00369944
0.00357002
0.00340351
0.00329254
0.00330272
0.0013858
0.00136694
0.00284748
0.00297166
0.00153376
0.00160433
0.00191163
0.00254638
0.00207317
0.00240967
0.000746572
0.000749741
0.000749115
0.000758516
0.00074321
0.000742992
0.000742975
0.000743889
0.000745188
0.000746442
0.000745199
0.000744521
0.000743517
0.00074339
0.000743107
0.000758587
0.000774332
0.000776412
0.00079505
0.000799475
0.000825799
0.000793903
0.00349732
0.00374799
0.00338279
0.0037103
0.00365095
0.00274201
0.00332351
0.00262482
0.00215128
0.000838294
0.001923
0.00117647
0.00175749
0.00134677
0.000882099
0.000877426
0.000898241
0.000889999
0.000923221
0.000912212
0.00103538
0.00102995
0.00117536
0.00369702
0.00339281
0.00375741
0.00113347
0.00120528
0.000952179
0.00323809
0.00280036
0.00265888
0.001802
0.00114182
0.00157838
0.000621187
0.000826483
0.00386749
0.00129118
0.000684719
0.000842237
0.000776445
0.000875581
0.000862176
0.000903716
0.000942208
0.000879273
0.000869585
0.000945263
0.000951619
0.00114598
0.00121729
0.00170997
0.00132756
0.00174812
0.00134681
0.00131237
0.00176795
0.00148382
0.00160882
0.00186876
0.00223697
0.00184411
0.00156223
0.002031
0.00181036
0.0021529
0.00203332
0.0027413
0.00314681
0.00354081
0.0033526
0.00294843
0.00246929
0.00247835
0.00227111
0.00280536
0.00231857
0.00251948
0.00360719
0.0034986
0.0036851
0.00355574
0.00362701
0.00333171
0.00339062
0.00287823
0.00312545
0.00303478
0.00146098
0.00162584
0.00247898
0.00263927
0.00227153
0.00215567
0.00196178
0.000757599
0.000746428
0.000748858
0.000748619
0.000743111
0.000743739
0.000744834
0.00075942
0.000745965
0.000744883
0.000744501
0.000743737
0.000743855
0.000743355
0.000743826
0.000743902
0.000746843
0.000745109
0.000744493
0.000748485
0.000748035
0.000750366
0.000772464
0.000773735
0.000776471
0.000785485
0.000841804
0.000812975
0.000811801
0.000797594
0.00381304
0.00380595
0.00353986
0.00244595
0.00335198
0.00284034
0.000871131
0.000913116
0.000922742
0.00241449
0.00141355
0.00227143
0.00154635
0.00095084
0.000928434
0.00100741
0.000989303
0.00116462
0.00116948
0.00133814
0.00376722
0.00378152
0.00357329
0.00387873
0.00392593
0.00339505
0.000839727
0.000904338
0.000674218
0.00293988
0.00271202
0.00207919
0.00150871
0.000864578
0.00910676
0.00821119
0.00217157
0.000903069
0.00742682
0.005282
0.00139104
0.000907963
0.00114822
0.000910141
0.00107607
0.000993438
0.00112821
0.00127147
0.00124607
0.00177123
0.00180886
0.00151483
0.00223598
0.00173137
0.00194781
0.0025069
0.00247202
0.0027017
0.00222146
0.00239209
0.00258328
0.0028706
0.00222861
0.00242727
0.00264741
0.00234688
0.00273306
0.00243563
0.00348765
0.00319293
0.00339254
0.00330544
0.00307374
0.00305358
0.00318687
0.00305964
0.00297702
0.00365252
0.00349403
0.00341749
0.00352624
0.00349061
0.00302816
0.0032811
0.0025732
0.00277349
0.00215376
0.00228756
0.000756057
0.000753083
0.000749769
0.000756929
0.000744125
0.00074602
0.000747582
0.0007551
0.000761141
0.000745236
0.000744222
0.000744298
0.000743614
0.000744014
0.000743628
0.000744637
0.000744821
0.000748051
0.00074203
0.000747165
0.000748482
0.000751013
0.000752564
0.000771371
0.00077436
0.000785957
0.000795378
0.000861048
0.000841898
0.000837374
0.000815771
0.00317581
0.00330854
0.0038436
0.000924167
0.000943623
0.000945458
0.0010299
0.000981194
0.00233494
0.00297655
0.00165191
0.00209812
0.00138184
0.00129174
0.0016725
0.00169809
0.00150313
0.00370251
0.00391685
0.00394131
0.00374349
0.00374679
0.00351733
0.00303296
0.00276476
0.000615789
0.000704649
0.00239459
0.00188374
0.00145953
0.000788079
0.00915443
0.0103077
0.00382715
0.00830539
0.010174
0.00984353
0.00550948
0.00340397
0.00942711
0.0089559
0.0045665
0.00252708
0.00352415
0.0020443
0.0029401
0.00185599
0.00253174
0.00252367
0.00203372
0.00299141
0.00261549
0.00261871
0.00252041
0.00265102
0.00315533
0.00306913
0.00311574
0.0033447
0.0030654
0.00279489
0.00323992
0.00342017
0.00288883
0.00317152
0.00338466
0.00308263
0.00338511
0.00361042
0.00345793
0.00359873
0.00346798
0.00357021
0.00344422
0.0034504
0.00347532
0.00355049
0.00354193
0.00315438
0.00337488
0.0026957
0.00284733
0.00216568
0.00232794
0.000759238
0.00075684
0.000756165
0.000753957
0.000749406
0.000749898
0.000753659
0.000759009
0.000766022
0.000746978
0.00074182
0.000746822
0.000742317
0.000748183
0.000744803
0.000750847
0.000746208
0.000747584
0.000749213
0.000750673
0.000752761
0.000754039
0.000776087
0.000777015
0.000787259
0.000814977
0.000803429
0.000780851
0.000911325
0.000871884
0.000875729
0.000845662
0.000950447
0.00383016
0.00337828
0.000983202
0.000929754
0.00121238
0.00111215
0.00181076
0.00214504
0.00219818
0.00211065
0.00305107
0.00258093
0.00229528
0.00248685
0.00234446
0.00394845
0.00414324
0.00377832
0.00396767
0.00324251
0.00293781
0.00237933
0.00219336
0.00189144
0.00179615
0.00060844
0.00134831
0.00767528
0.00987819
0.00229552
0.005762
0.00967
0.0106803
0.0085752
0.00738797
0.0107099
0.010259
0.00694947
0.00582202
0.00571911
0.00380064
0.00439576
0.00351575
0.00316369
0.00331504
0.00416146
0.00345197
0.00393338
0.00334423
0.00360604
0.003636
0.00388176
0.00378885
0.00375845
0.00362671
0.00356738
0.00335288
0.0036642
0.00381449
0.00345258
0.00361677
0.00372646
0.00359417
0.00370648
0.00358703
0.00354848
0.00355153
0.00364194
0.00363174
0.00361912
0.00326291
0.00342248
0.00276565
0.00293815
0.00222336
0.00239942
0.000788362
0.000666736
0.000759282
0.000760242
0.000759201
0.00075762
0.000756803
0.000754807
0.000757001
0.000757585
0.000763028
0.000763712
0.000780486
0.000747335
0.000746668
0.000748153
0.000748488
0.00075194
0.000749102
0.000749958
0.000751785
0.000753126
0.000753997
0.000755738
0.000775506
0.00079967
0.000803096
0.000849135
0.000792959
0.000800321
0.000948948
0.000897371
0.000906588
0.000849522
0.0010111
0.00115597
0.000903305
0.0038983
0.00373885
0.00190478
0.00167883
0.00239424
0.00347159
0.00316613
0.00282686
0.00308425
0.00340531
0.00363703
0.00305695
0.00384863
0.00446917
0.00305734
0.00354717
0.0025544
0.00225548
0.00181893
0.00167006
0.000597354
0.000906372
0.00597487
0.00920826
0.0015608
0.00343681
0.00873015