/*--------------------------------*- C++ -*----------------------------------*\
  =========                 |
  \\      /  F ield         | OpenFOAM: The Open Source CFD Toolbox
   \\    /   O peration     | Website:  https://openfoam.org
    \\  /    A nd           | Version:  8
     \\/     M anipulation  |
\*---------------------------------------------------------------------------*/
FoamFile
{
    version     2.0;
    format      ascii;
    class       volScalarField;
    location    "16000";
    object      epsilon;
}
// * * * * * * * * * * * * * * * * * * * * * * * * * * * * * * * * * * * * * //

dimensions      [0 2 -3 0 0 0 0];

internalField   nonuniform List<scalar> 
4109
(
0.117505
0.131183
0.120809
0.129881
0.135523
0.131487
0.13676
0.120696
0.145275
0.145102
0.14318
0.147277
0.120098
0.134656
0.139654
0.150936
0.151598
0.149996
0.152001
0.141144
0.121866
0.130646
0.13148
0.158825
0.160152
0.16533
0.120011
0.133802
0.118581
0.16047
0.149186
0.143184
0.132442
0.13128
0.137933
0.163078
0.164098
0.176548
0.137225
0.11973
0.134471
0.137082
0.122389
0.166565
0.154523
0.552542
0.250103
0.148859
0.143826
0.132372
0.138991
0.170778
0.178449
0.192218
0.150539
0.137715
0.117477
0.135025
0.139346
0.147598
0.143936
0.676811
0.177315
0.163066
0.157185
0.212707
0.553092
0.151025
0.143476
0.1437
0.207829
0.184805
0.236317
0.22742
0.224585
0.155893
0.155584
0.143884
0.134914
0.144252
0.140646
0.143546
0.149308
0.152115
0.182893
0.248544
0.590424
0.800275
0.810593
0.188968
0.184678
0.169517
0.163121
0.157878
0.193879
0.422507
0.151296
0.143933
0.237085
0.220717
0.209838
0.242332
0.248356
0.245916
0.251896
0.1657
0.161283
0.155379
0.141089
0.154489
0.208234
0.147194
0.151785
0.15473
0.161319
0.818556
0.303677
0.400225
0.567084
0.895712
0.846858
0.252092
0.206331
0.194385
0.178849
0.172037
0.165669
0.157406
0.429749
0.162583
0.154745
0.241512
0.227104
0.260361
0.251883
0.27434
0.256568
0.172107
0.169835
0.16969
0.155143
0.161002
0.21102
0.15219
0.15755
0.162786
0.166813
0.798234
0.474587
0.916001
0.599383
0.92587
0.285139
0.214462
0.20367
0.186773
0.179151
0.17249
0.166066
0.159856
0.415411
0.154469
0.235695
0.221824
0.269644
0.248224
0.279166
0.283649
0.300085
0.18271
0.178201
0.176981
0.163898
0.169621
0.226704
0.159219
0.165602
0.168919
0.176767
0.556262
0.972587
0.580166
1.00944
0.984406
0.313859
0.197387
0.207055
0.188714
0.172229
0.180802
0.170737
0.473948
0.163198
0.219138
0.230588
0.263616
0.24429
0.278158
0.297222
0.296313
0.338056
0.190365
0.188173
0.189456
0.177776
0.171346
0.228532
0.165791
0.171663
0.177975
0.18381
0.602781
1.05463
1.07882
0.666626
1.09686
0.310101
0.198463
0.210152
0.184839
0.178471
0.496483
0.169886
0.221467
0.234392
0.257909
0.24768
0.273648
0.29623
0.311801
0.335234
0.375038
0.202439
0.196967
0.196614
0.1891
0.17895
0.241288
0.179824
0.172462
0.211962
0.185977
0.194915
0.590917
1.15068
0.698026
1.19333
1.19331
0.329663
0.200876
0.208848
0.190313
0.547527
0.171656
0.224067
0.234165
0.26209
0.250337
0.277485
0.289834
0.315064
0.338442
0.362229
0.422392
0.213111
0.205312
0.202637
0.222024
0.181142
0.245379
0.184168
0.225183
0.203814
0.196864
1.24215
0.615333
1.29076
0.766542
1.32887
0.338322
3.64985
0.202997
0.215219
0.577136
0.179054
0.223643
0.237527
0.26306
0.249462
0.279754
0.293522
0.308307
0.33749
0.364643
0.402126
0.412958
0.47906
0.210093
0.219833
0.203517
0.234342
0.236736
0.186844
0.255212
0.199698
0.216297
0.207086
0.639366
1.36602
1.41546
0.770333
1.44501
0.353879
4.40738
3.87582
4.60697
3.18424
3.9592
2.78974
0.751979
0.187952
0.232168
0.238452
0.254128
0.252443
0.267529
0.280579
0.29401
0.311392
0.42399
0.327688
0.361238
0.397176
0.478459
0.541667
0.510046
0.617859
0.231725
0.225023
0.247544
0.251647
0.227121
0.19941
0.271792
0.207346
0.219421
0.698877
1.52082
1.5033
0.357011
9.80429
7.17486
4.72242
3.39321
4.36372
5.47821
0.724371
0.718617
0.810411
3.02079
2.61985
2.79068
2.54537
2.91514
1.38694
0.218513
0.306337
0.287397
0.273887
0.464694
0.284918
0.29562
0.311873
0.330418
0.42252
0.349641
0.387942
0.533201
0.479672
0.589861
0.576224
0.721148
0.806613
0.248665
0.251309
0.265024
0.264859
0.241316
0.231316
0.209935
0.269355
0.223009
0.789798
1.81172
10.1273
7.33936
3.60962
4.35717
5.52844
0.787731
0.840137
0.920336
0.843768
0.898342
2.13266
2.32175
2.24651
2.52334
2.99091
2.06858
1.18158
0.318382
0.328621
0.292289
0.454859
0.47188
0.310683
0.308336
0.329142
0.351503
0.414618
0.373177
0.542322
0.509188
0.595643
0.647278
0.729696
0.766512
0.276542
0.265319
0.232793
0.293498
0.281782
0.254491
0.245423
0.319437
0.236783
0.224544
0.330608
0.867839
9.84249
11.2001
7.49129
3.58597
4.45296
5.70717
0.830641
1.00247
1.18956
0.939052
1.02763
1.82949
1.47208
0.933202
1.00112
1.9927
2.18588
2.5446
2.95255
2.4832
2.13096
0.605488
0.345345
0.325213
0.44396
0.473825
0.325192
0.328341
0.349737
0.374207
0.400022
0.553597
0.513289
0.605108
0.660802
0.698565
0.758244
0.302253
0.319378
0.295074
0.248684
0.249057
0.27097
0.286961
0.259836
0.334763
0.307203
1.72609
2.49491
0.241293
0.235149
10.2517
7.29755
7.04484
11.4057
7.76151
3.63366
4.54875
5.91913
0.912761
0.805851
1.07055
1.20277
1.13502
1.4044
1.66362
1.0369
1.12286
1.90799
2.14635
2.52699
3.06518
3.27106
3.08737
3.87762
0.641779
0.409765
0.348311
0.429296
0.462463
0.350669
0.34667
0.370389
0.400717
0.498965
0.540404
0.586574
0.639251
0.693383
0.739234
0.773232
0.33738
0.335561
0.262451
0.261986
0.276741
0.293221
0.312759
0.358075
0.32708
0.264371
0.361034
0.458503
10.664
7.53974
6.47381
4.31498
4.3917
11.5843
7.60072
3.7155
4.14697
4.95762
1.00671
0.876719
0.838714
1.61549
1.25986
1.35025
1.15896
1.24828
1.86929
2.11717
2.63669
3.13222
0.944938
3.87782
3.92185
4.47781
0.854856
0.455413
0.386789
0.429776
0.462374
0.371141
0.373308
0.398423
0.498412
0.539005
0.584337
0.635693
0.680297
0.713926
0.770654
0.782891
0.376176
0.37787
0.283054
0.282784
0.298944
0.315768
0.331774
0.385257
0.349436
0.332951
0.28358
0.302676
10.4477
3.29171
6.16611
5.39711
4.35535
11.7404
7.70914
3.51002
4.33029
5.22201
6.51452
1.11569
0.862336
0.976293
0.867314
1.29764
1.56127
1.41971
1.87386
2.27455
2.71537
2.99761
0.994518
4.63682
4.81247
5.59047
0.965425
0.532893
0.421966
0.46009
0.426059
0.396673
0.401668
0.494671
0.535264
0.627015
0.578133
0.66774
0.709718
0.711793
0.759965
0.823955
0.421507
0.407905
0.417834
0.304296
0.303464
0.330321
0.349412
0.372167
0.364646
0.306067
0.349329
10.9353
7.30173
2.47821
2.7169
4.9653
4.35675
3.59392
8.10778
11.6782
3.65402
4.28726
5.04612
6.20935
1.23862
0.892838
1.06792
0.919245
0.979825
1.46353
1.57339
1.37164
1.94505
2.32959
2.63831
3.13335
1.47417
5.55498
5.89805
6.51539
1.20993
0.611277
0.444859
0.463035
0.42899
0.429549
0.502869
0.534686
0.617387
0.580809
0.68116
0.711791
0.749129
0.798985
0.857107
0.474619
0.456775
0.45167
0.400129
0.330298
0.332456
0.351184
0.365318
0.38138
0.330771
0.41218
11.7556
8.623
6.4432
5.50839
1.92308
2.16862
2.59469
4.1624
3.56008
3.08902
1.56117
8.09184
11.4655
11.6747
3.6375
4.28798
5.73851
5.04662
1.19567
0.943881
1.04419
0.973715
1.51542
1.70893
1.33248
3.13816
2.00076
2.24162
2.7031
1.598
6.75865
7.27253
8.13451
0.473557
1.4515
0.632414
0.466601
0.466558
0.55402
0.531742
0.636343
0.643753
0.598497
0.691277
0.752923
0.811261
0.537123
0.500036
0.485586
0.428655
0.414895
0.351333
0.347283
0.371955
0.394284
0.355368
0.44045
0.617021
0.702066
8.36457
6.67936
5.12869
4.42389
1.77569
2.19127
2.62916
3.42764
2.94203
1.4646
1.24731
1.07337
0.860721
0.799973
10.8309
7.80641
10.8555
8.13343
3.16462
3.67723
4.21667
5.60405
1.17294
0.996242
1.0563
1.72703
1.52246
1.33607
1.26962
2.69359
2.68788
1.97713
2.33248
1.95484
9.22385
8.37735
9.37309
0.666782
1.56176
0.50131
0.557498
0.639103
0.583288
0.686661
0.732792
0.786207
0.541474
0.520549
0.462879
0.440202
0.418149
0.380345
0.375292
0.39912
0.513313
0.384171
0.741298
0.619381
0.680215
6.409
5.41963
4.19619
3.58392
1.79217
2.24733
2.47653
2.82513
1.57428
1.23732
1.30377
0.760503
1.04561
0.825783
0.900504
8.01285
6.67113
6.2525
5.15083
3.0025
3.52707
4.60312
2.63039
1.13366
1.0573
1.64541
1.40684
1.532
1.36024
1.22197
2.36244
2.40651
2.00183
1.80442
11.3031
10.5294
11.3661
1.07347
1.75271
0.552534
0.322358
0.635523
0.700518
0.759605
0.561334
0.49899
0.479269
0.452833
0.426529
0.403016
0.39636
0.462827
0.401894
0.691125
0.616146
5.04643
5.20355
4.42532
3.43665
2.91191
1.92208
2.12035
2.36741
1.64355
1.45871
1.28052
0.768993
0.819099
1.128
0.891278
0.984568
5.79421
5.17641
5.13595
4.29851
2.32756
3.11933
3.40962
2.69069
4.32648
1.1215
1.72947
1.56773
1.47289
1.30098
1.19121
1.80687
1.99252
2.03127
1.85016
15.1816
13.6401
15.6499
3.07158
0.617993
0.90209
0.681378
0.743257
0.54147
0.513411
0.483969
0.459919
0.433654
0.429523
0.471796
0.437804
0.676729
0.587682
4.25038
4.32604
3.54113
2.79965
2.41798
1.82953
2.01411
1.58802
1.39072
1.23524
0.73914
0.801274
1.10345
0.887542
0.980629
4.27265
4.13339
3.34532
1.89332
2.0972
2.38375
2.6044
3.55148
1.50034
1.37258
1.25155
1.64509
1.58003
1.79791
2.64521
20.8781
27.3969
9.45582
0.677815
1.11623
0.739195
0.560257
0.525762
0.4952
0.462849
0.458289
0.506388
0.641492
0.605448
3.51507
3.45936
2.81686
2.32353
2.0518
1.73467
1.51063
1.32712
1.17599
0.701314
0.770843
1.04884
0.849662
0.941949
3.40615
3.40176
2.78919
1.95536
2.1278
2.30828
1.81823
2.82758
1.41158
1.30882
1.50971
1.54038
1.67697
4.70968
46.1593
45.4965
21.3401
0.754521
2.34186
0.566036
0.536535
0.494041
0.502083
0.61865
0.663219
0.617523
2.83005
2.81309
2.33797
1.98757
1.76637
1.53934
1.35298
1.20186
0.722681
0.795328
1.07356
0.873576
0.967578
2.78428
2.77102
2.32925
1.85494
1.98324
1.68678
2.347
1.35724
1.43021
1.45601
1.52722
1314.33
10.097
77.932
81.0381
51.3582
1482.19
0.57955
0.541244
0.556468
0.553665
0.849064
0.669739
0.63024
2.30199
2.32658
1.99986
1.72339
1.50583
1.33252
1.18733
0.734069
0.800822
1.07025
0.880699
0.966507
2.21336
2.23581
1.98269
1.68309
1.53066
1.95586
2.00959
1105.22
1207.43
23.4064
139.896
140.005
1582.02
1368.84
1951.61
0.594757
0.541555
0.613936
0.61065
1.41912
0.685711
0.625129
2.01128
2.00478
1.7267
1.50891
1.33495
1.1959
0.749651
0.819722
1.08029
0.982876
0.896165
1.97308
1.75619
1.5274
1.74006
1.81119
1.77997
764.666
975.797
1147.8
53.4545
1532.96
1304.28
1833.43
1961.86
0.621454
0.617008
0.683105
3.05597
0.699389
0.634823
1.67087
1.68281
1.48697
1.32162
1.19071
0.750479
0.832169
1.08565
0.991898
0.909469
1.76057
1.57274
1.623
1.65276
1.63803
1.61587
713.282
611.625
896.751
1138.58
1896.85
1679.05
1524.26
1292.5
1911.17
1981.15
0.660358
0.681183
0.756311
0.681863
0.700275
0.740029
1.54804
1.37307
1.2523
1.13419
0.810667
0.822034
1.06372
0.964322
0.918441
1.57055
1.52481
1.52905
1.50798
1.48163
557.645
507.428
863.97
1195.06
2190.79
1963.94
1473.43
1725.3
1572.51
1349.25
2039.1
2022.66
0.695943
0.723815
0.739428
0.761956
0.822646
1.45043
1.33284
1.23496
1.13747
0.853106
0.878213
1.06159
0.990503
0.932848
1.42033
1.38876
1.34338
2452.46
445.154
440.964
884.15
1369.6
2212.78
2136.52
1260.05
1495.96
1817.18
1713.62
1527.97
2269.12
2098.7
0.726052
0.752576
0.787701
0.820122
1.32131
1.27176
1.20442
1.1331
0.865946
0.909197
1.06607
1.00829
0.953795
2902.66
2422.63
366.221
407.039
990.177
1881.67
2277.25
2423.96
1155.65
1260.33
1549.97
1968.68
2040.41
2051.38
2678.32
2237.02
3213.09
3027.81
2397.84
313.906
408.405
1333.71
4454.26
2421.78
2927.63
988.955
1163.21
1290.32
1654.58
2223.9
2895.73
4637.87
3463.47
2480.28
3244.22
3589.3
3080.92
2413.97
292.307
487.483
3078.91
2704.57
3774.65
876.824
999.81
1193.1
1365.67
1844.77
2687.2
6775.94
5315.34
3167.57
3689.69
3997.33
3097.71
2525.69
321.79
958.513
3286.59
5362.72
596.736
869.486
1048.53
1261.82
1514.84
2207.95
3718.76
12568.3
2698.21
3451.15
4263.79
4410.94
3167.32
2828.37
573.533
4696.68
129.268
536.977
868.415
1148.94
1397.37
1808.03
3042.29
7544.22
2973.96
3096.9
3751.33
5007.48
4811.59
3402.94
3637.08
10117
83.7188
121.43
493.358
873.549
1332.64
1665.89
2487.15
6174.1
2505.8
3424.66
3574.19
4141.26
6028.83
5286.11
4125.79
6825.81
91.1765
88.1433
117.564
463.045
887.819
1679.59
2289.4
4978.08
1309.6
3035.03
4004.55
4165.9
4653.19
7393.71
6188.25
7092.63
97.2216
99.1883
95.7627
118.765
447.148
922.804
2460.22
4556.26
1076.44
1491.84
3854.14
4793.26
4948.11
5462.2
9132.9
9414.38
97.6954
105.687
110.739
107.944
128.77
449.941
1032.4
5230.76
930.386
1174.09
1637.73
5310.3
5935.22
6118.46
7322.26
11237.4
92.3575
106.142
117.891
127.696
127.767
160.264
520.642
1298.76
946.649
1045.1
1286.79
1763.03
8147.95
7698.09
8262.26
9319.35
85.3095
100.281
118.328
135.87
154.151
163.428
249.507
1060.51
1075.04
1057.71
1171.96
1442.02
1879.89
14015.6
10458.7
14414.2
128.449
89.7415
111.808
136.294
164.031
200.791
246.379
662.617
1335.41
1176.16
1182.44
1334.51
1686.4
2091.25
27312.9
13187.3
577.391
121.149
97.4207
128.802
164.448
213.972
307.767
600.124
2462.86
1550.78
1292.2
1344.27
1575.01
2119.98
3109.01
66791.4
901.626
523.253
117.72
109.702
155.407
214.4
328.795
763.839
2877.9
2844.82
1773.87
1450.2
1585.38
1987.88
3054.42
8275.54
1000.8
888.347
481.747
119.35
129.692
202.407
329.336
817.139
2613.36
3270.65
3267.37
2056.92
1696.79
2001.12
2867.93
6049.63
1174.34
1015.66
885.552
451.927
129.979
165.652
310.247
817.212
3251.96
3012.24
3738.05
3767.5
2482.29
2134.91
2890
5718.24
1268.87
1185.56
1069.47
890.712
436.056
162.056
249.012
767.075
3350.32
3576.47
3498.99
4304.06
4382.74
3215.54
3089.79
5793.63
1486.13
1271.51
1220.46
1176
905.938
438.776
251.671
601.848
3292.9
3821.06
3885.76
4082.99
5106.89
5176.95
4695.39
6239.42
1705.77
1513.65
1305.29
1295.62
1367.74
944.007
509.381
662.147
2894.55
3690.79
4438.66
4223.24
4845.65
6498.02
6507.86
9143.53
2081.45
1891.07
1763.51
1573.69
1385.68
1439.92
1727.39
1057.77
1047.98
2435.22
3005.17
4099.72
5264.64
4648.45
5859.49
9327.92
12222.7
1696.72
2082.86
1987.25
1868.36
1684.64
1541.77
1722.5
2538.57
1340.87
2175.78
2404.84
3048.89
4477.44
6379.94
5552.55
7991.81
15291.1
1849.53
1532.41
1655.42
2103.67
2130.29
2032.85
1882.51
1847.45
2376.73
5421.4
2185.34
2378.31
3073.41
4817.78
7787.14
7740.04
18038.7
1913.77
767.514
1437.68
1435.26
1655.93
2149.69
2379.85
2302.8
2257.89
2552.88
4759.79
851.699
1214.32
2240.5
2391.79
3148.2
5224.57
9545.56
10966.3
2072.72
600.999
1323.39
1380.87
1716.6
2234.03
2818.03
2786.74
3117.37
5150.38
678.495
1084.5
2377.25
2499.5
3381.79
6144.6
11967.8
2346.91
480.652
1261.01
1379.15
1878.47
2385.24
3653.99
3856.37
6353.7
563.59
1004.2
2650.5
2796.11
4103.24
9653.21
2830.91
396.1
1254.54
1449.58
2243.1
2651.35
5631.66
7835.08
489.615
972.696
3214.8
3592.58
7037.38
3662.52
339.592
1321.39
1653.63
3195.02
13420.4
450.523
999.591
4584.24
6727.63
5229.7
315.251
1521.38
2238.27
7538.09
448.485
1121.93
9844.24
343.17
2101.47
5136.54
527.152
1509.38
610.153
4999.91
1009.17
3464.56
0.906033
0.866226
0.89096
0.890875
0.920148
0.916357
0.929824
0.929217
0.947145
0.833828
0.854733
0.862935
0.886649
0.893355
0.916527
0.926063
1.00142
1.02614
1.04901
1.08583
1.11268
0.946253
0.958976
0.945295
0.946326
0.954568
0.949088
0.973687
0.965989
0.992033
1.15611
1.17654
0.806153
0.828107
0.839622
0.861546
0.873058
0.892915
0.909474
0.929311
0.94569
0.964026
0.983271
1.00325
1.03498
1.0574
1.10969
1.13612
1.22588
1.24066
0.97686
0.991805
1.0114
1.02754
1.05182
1.0739
1.11429
0.972261
0.97675
0.974628
0.973644
0.992974
0.98123
1.02188
1.00874
1.04181
1.11414
1.14403
1.31072
1.33671
1.22356
1.21774
1.29961
0.786532
0.805913
0.822435
0.841348
0.858981
0.8776
0.897735
0.915291
0.943108
0.96375
0.989128
1.00848
1.0774
1.09315
1.15244
1.16408
1.24388
1.26719
1.34953
1.38585
1.48037
1.49353
1.62786
0.999363
1.00867
1.02782
1.04396
1.06905
0.997957
0.999805
1.00858
1.00126
1.03386
1.01938
1.09376
1.06965
1.05299
1.07844
1.13815
1.14206
1.22528
1.2511
1.57223
1.36599
1.48789
1.31671
1.36257
0.775564
0.7934
0.813495
0.832513
0.853507
0.871498
0.894126
0.914441
0.935886
0.961049
0.99148
1.03313
1.16282
1.10618
1.22498
1.25086
1.34847
1.36532
1.45041
1.67473
1.72177
1.74123
2.01092
2.04321
1.94673
2.09044
2.0932
2.81873
1.02165
1.03131
1.04778
1.06374
1.14623
1.118
1.02625
1.02336
1.04387
1.03341
1.09658
1.07438
1.05995
1.19813
1.16828
1.08893
1.12847
1.15942
3.65112
3.08177
5.68555
1.23209
1.23548
1.32359
1.35524
1.61075
1.64196
2.30526
1.93564
1.55235
1.61914
0.781359
0.795401
0.820599
0.836577
0.863026
0.879659
0.908903
0.928733
0.991683
0.968228
1.04751
1.07498
1.17023
1.18697
1.36372
1.36065
1.54409
1.55783
1.73381
1.76428
1.94778
22.6233
21.18
12.5048
2.01009
2.2335
2.40856
2.67679
2.9507
3.09987
3.0923
11.6204
4.93253
1049.68
1328.2
1243.65
1827.78
1541.1
1655.92
1768.12
1837.09
1.04703
1.04918
1.07231
1.0864
1.14232
1.11815
1.05712
1.05061
1.10025
1.08146
1.07018
1.252
1.21984
1.18996
1.16376
1.10705
1.15406
1.25083
1.18747
1.24188
894.965
629.039
109.754
57.4939
25.0534
2.46001
4.09556
5.38265
14.9349
1.36647
1.37262
1.3823
1.37224
1.59692
1.62791
1.77844
1.70318
2.28932
961.144
1258.22
1472.69
1399.25
1619.7
1764.65
1798.28
1857.75
1809.47
1760.64
0.872028
0.838291
0.903024
0.891419
0.949394
0.94198
1.00001
0.996217
1.05274
1.05102
1.12047
1.11924
1.2387
1.26902
1.31905
1.33558
1.18271
1.45534
1.26764
1.32082
2.81124
2.80633
3.38574
3.80984
3.72421
58.3164
94.0445
300.455
182.498
56.4209
39.2114
6.33649
8.38295
12.1627
11.422
36.145
16.8019
14.8471
390.136
930.535
614.484
675.431
955.987
1183.34
1309.84
1303.21
1608.3
1596.71
1606.05
1519.19
1823.39
1883.21
1918.07
1741.66
1890.99
1811.77
1.07565
1.07596
1.097
1.11304
1.14477
1.12134
1.10973
1.09198
1.08169
1.30377
1.26924
1.23593
1.20897
1.18381
1.1606
1.12813
1.17386
1.18086
1.24273
1.24854
1.31006
1.23969
185.28
492.051
331.452
848.167
525.131
92.1956
198.265
70.5382
23.7508
1.37385
17.4254
3.06249
6.26524
4.30671
1.55094
1.48643
1.66546
1.5621
1.70245
1.69405
1.93089
1.80971
3.07468
949.664
1332.27
846.847
1459.89
1649.81
1260.23
1490.14
1772.29
1777.55
1795.2
1615.35
1797.6
5.16707
1.15553
103.702
29.1494
2.41744
1.18239
1.78485
1.1343
1.48354
1.09076
1.32878
1.29304
1.24806
1.40506
1.37354
1.60034
2.28128
1.47886
2.75503
4.13934
4.22389
7.72389
22.2881
8.64308
9.29488
39.2818
42.6639
14.8756
13.5971
19.0676
19.9648
26.6747
28.3038
122.069
185.426
344.73
238.046
132.728
83.7239
49.3167
54.2103
99.0949
66.716
73.004
608.466
480.459
648.87
963.28
854.255
1267.38
1172.29
1578.68
1415.65
1475.65
1678.42
1846.98
1773.96
1672.78
1856.43
1937.85
1945.43
1.13366
1.10419
1.10202
1.12191
1.14424
1.1257
1.11748
1.14611
1.3585
1.32211
1.28275
1.25211
1.22405
1.19715
1.1811
1.1587
1.40807
1.35052
1.40941
1.46357
1.42428
1.45733
1.19874
1.19445
1.20046
1.22539
1.39034
1.29852
1.33967
1.25507
505.79
397.233
234.293
35.638
172.596
95.9768
1.47542
1.76116
1.67656
44.9726
4.37347
12.4954
7.73431
1.98109
1.90024
2.0812
2.00752
2.40632
2.08977
5.13687
465.901
1040.88
1313.65
901.502
645.932
1473.3
1207.02
1517.15
991.465
1797.18
1841.35
1923.67
1805.37
1664.89
222.325
246.24
59.0025
11.5506
252.705
218.874
30.4829
11.1169
21.3293
6.39334
13.4844
4.23745
9.35318
2.36596
4.43235
10.1306
30.3276
18.4106
37.2911
20.0397
26.5437
65.0624
101.775
111.556
56.9177
53.9412
120.639
137.443
62.5563
70.134
95.1504
96.2231
126.463
103.592
402.427
215.662
290.831
268.953
210.853
189.65
238.913
141.074
220.578
715.409
527.223
1197.73
937.078
1045.64
1487.73
1333.6
1675.5
1590.64
1779.55
1720.68
1.43958
1.40581
1.131
1.14764
1.15067
1.13511
1.13309
1.15818
1.17555
1.32593
1.28102
1.2634
1.22853
1.21538
1.1898
1.18093
1.1628
1.3706
1.33306
1.3531
1.37932
1.33165
1.36311
1.19459
1.20187
1.21648
1.26414
1.51861
1.3802
1.40708
1.30656
91.7249
191.445
291.517
1.63522
1.93481
1.91611
2.30891
2.3225
23.7212
102.285
7.09041
21.6179
2.57292
2.33301
3.96398
2.99824
8.20681
314.417
604.544
518.117
1137.85
1172.05
1387.25
1803.06
1940.49
1029.48
1657.26
2063.76
2001.21
2022.29
1875.06
223.098
198.744
102.353
249.115
231.554
290.708
234.679
151.643
319.671
395.976
225.175
107.493
175.438
66.7651
124.793
50.764
66.0906
89.0599
64.3464
143.577
110.069
103.065
103.664
113.172
219.916
241.694
259.823
295.861
188.74
181.468
321.599
339.339
206.51
226.592
290.381
283.386
325.088
552.313
456.694
517.264
358.646
458.224
467.877
415.247
503.768
1028.88
827.348
1386.25
1239.58
1594.71
1516.07
1676.67
1611.36
1.48239
1.42109
1.37562
1.34152
1.16716
1.16242
1.16397
1.17337
1.19274
1.29984
1.27313
1.24798
1.22828
1.20858
1.19441
1.18644
1.2969
1.31641
1.27663
1.30357
1.27943
1.30285
1.20885
1.20821
1.23944
1.33239
1.25441
1.21335
1.68021
1.52393
1.5436
1.41813
1.8161
234.397
140.696
2.21118
2.20672
2.5774
2.49962
3.53309
4.04634
2.50889
26.6692
127.299
31.9666
9.88684
6.24608
28.5379
587.982
389.346
1298.97
1036.72
1762.25
1889.33
2168.3
2181.14
2255.87
2141.83
6.55304
33.2029
256.844
280.87
64.464
236.922
310.73
252.149
417.657
447.116
256.889
338.189
455.189
436.254
454.398
299.524
376.816
278.175
242.555
228.062
388.351
291.006
400.988
332.495
340.439
455.463
503.151
503.168
531.521
448.68
427.71
379.663
594.359
611.937
472.935
491.748
631.92
628.634
820.987
927.406
805.219
768.203
834.07
745.609
807.021
1283.29
1180.83
1453.33
1385.04
1492.7
1430.55
0.890097
1.61748
1.49827
1.4598
1.41379
1.35988
1.32535
1.29072
1.18196
1.18254
1.18266
1.1847
1.21477
1.26211
1.24562
1.22512
1.21245
1.19957
1.23192
1.25322
1.23239
1.25517
1.24466
1.26405
1.21281
1.27079
1.28484
1.43189
1.25558
1.2814
1.92459
1.60203
1.68185
1.44973
2.26355
2.70419
2.83265
461.923
188.038
2.91686
2.46658
8.87503
4.67888
41.5964
34.9198
23.6356
142.703
231.774
81.1291
1261.16
781.337
1932.01
1711.81
2234.54
2286.63
2499.93
2454.07
3.30176
20.3649
254.255
394.879
41.0562
148.938
413.958
329.857
325.705
438.781
344.942
274.5
602.01
411.696
540.994
576.3
579.232
583.892
581.53
505.479
496.692
622.394
596.202
604.51
625.722
752.5
708.904
724.511
731.243
747.708
717.59
856.392
645.338
696.678
875.832
836.88
790.197
804.192
931.336
930.865
1010.44
1012.32
1199.09
1053.71
1070.31
1306.97
1251.32
1303.45
1258.48
0.781621
0.836649
0.892761
1.51383
1.46198
1.44294
1.40826
1.39154
1.35813
1.31211
1.25437
1.28782
1.38026
1.40434
1.19872
1.18658
1.17922
1.18028
1.21528
1.1953
1.19122
1.20151
1.21511
1.20603
1.22689
1.22245
1.23847
1.22619
1.26177
1.31257
1.40683
1.45619
1.34328
1.83855
2.31455
1.59928
1.91109
2.57502
3.71642
2.83025
3.94531
7.57259
1.94016
913.63
535.078
38.1296
14.8022
152.576
87.7025
402.141
712.271
301.416
1810.81
1576.83
2277.18
2394.05
2706.46
2717.56
2.41865
12.7994
215.281
451.592
24.6253
97.8896
464.622
483.322
258.629
289.772
473.277
335.313
544.268
478.412
267.312
344.061
668.445
503.135
566.559
538.421
624.418
679.406
678.035
631.83
661.336
719.875
704.631
707.892
857.038
807.032
771.097
755.748
704.808
847.19
869.548
953.212
892.905
901.867
974.597
988.373
956.794
969.435
999.546
1016.46
1188.93
1141.99
1053.63
1180.29
1155.53
0.770002
0.791083
0.822684
0.890055
0.93329
1.44687
1.36857
1.35775
1.33361
1.33292
1.23058
1.2768
1.25671
1.3049
1.33148
1.31988
1.30181
1.32665
1.28939
1.28725
1.24438
1.2459
1.23096
1.19018
1.18803
1.18897
1.19275
1.22315
1.18834
1.19731
1.20446
1.21103
1.20837
1.22415
1.22851
1.26102
1.35473
1.29616
1.42623
1.58232
1.53426
1.68674
2.19818
2.73763
1.90744
2.29984
3.27686
5.01271
15.2257
10.8993
9.4174
21.6107
76.1847
66.3812
1702.18
1158.89
336.135
313.138
800.492
1244.73
767.736
2235.94
2431.34
2772.9
2943.76
1.9525
7.67041
163.995
428.394
14.3007
57.564
439.835
556.655
313.47
255.461
544.106
424.448
359.276
293.961
242.55
246.849
564.118
543.063
306.535
428.591
351.357
433.544
542.397
627.284
607.745
596.81
558.875
567.565
511.568
708.489
705.172
591.549
515.922
543.274
530.361
719.326
766.917
974.435
1007.56
1004.37
985.641
990.875
1011.49
1029.58
987.063
994.213
1.31934
0.778942
0.786107
0.806136
0.83354
0.868027
0.933355
0.978049
0.80162
0.799772
0.834742
0.826214
0.874212
0.857897
1.20022
1.21132
1.15692
1.16987
1.10959
1.12645
1.05899
1.08128
0.918386
0.89685
0.964388
0.938611
1.01128
1.03398
0.984122
1.29945
1.28969
1.27295
1.28008
1.24858
1.23758
1.26401
1.25785
1.25578
1.24176
1.26506
1.21756
1.22071
1.17621
1.18212
1.22964
1.19311
1.20968
1.19147
1.20774
1.21014
1.20643
1.21315
1.21318
1.22396
1.23405
1.23272
1.23215
1.2291
1.32589
1.2557
1.48548
1.37576
1.57264
1.83094
1.72768
2.04249
2.70161
3.87039
2.41645
3.06787
4.50513
13.5923
162.984
101.073
194.148
42.8283
177.322
459.22
571.042
2268.34
1832.28
1136.76
1839.6
1212.11
2813.49
2895.89
1.54047
4.90529
413.393
102.334
196.353
8.68159
34.8219
563.44
596.216
367.384
280.736
588.956
457.166
638.767
238.562
235.14
227.404
422.49
366.654
215.422
255.268
283.491
236.713
375.738
438.214
399.187
355.213
375.466
329.608
388.108
315.689
400.753
254.027
337.243
237.573
321.371
552.372
990.563
950.072
683.046
938.684
895.087
1.23717
0.974134
1.01831
0.812888
0.82133
0.846431
0.879233
0.917751
0.830982
0.833057
0.857606
0.856427
0.891343
0.884922
1.13584
1.1485
1.0966
1.11239
1.05475
1.07228
1.01248
1.03277
0.931221
0.918582
0.970573
0.993195
0.954539
1.24802
1.23878
1.22896
1.24432
1.23655
1.20137
1.20682
1.19661
1.21977
1.16453
1.17085
1.12433
1.13403
1.23046
1.23152
1.23087
1.24265
1.23522
1.24232
1.24482
1.23717
1.24779
1.26793
1.25056
1.25272
1.24852
1.37891
1.3009
1.31038
1.63916
1.45653
1.74346
2.20534
2.08266
2.58883
3.54904
7.70723
3.17233
4.95919
9.87545
73.7784
582.884
736.07
513.367
752.805
198.645
631.055
1116.18
1423.69
1926.69
2962.8
2283.53
1.38772
2.19956
4.32014
234.574
483.927
58.1979
143.039
14.7389
543.086
662.124
344.319
251.186
633.897
390.959
665.259
623.301
511.592
508.025
197.484
214.84
283.721
247.46
179.393
191.877
201.326
179.888
237.744
264.186
251.505
223.484
214.549
199.233
170.663
160.186
142.632
124.367
166.024
118.624
708.511
194.787
506.667
2929.49
1.02213
1.09689
0.926346
0.984881
0.848522
0.863862
0.894148
0.863263
0.866541
0.883892
0.885362
0.911697
0.909954
1.08792
1.10111
1.05078
1.06884
1.01263
1.03248
0.97752
0.999203
0.944998
0.967245
0.936283
1.20964
1.2082
1.20322
1.19717
1.15771
1.17084
1.16293
1.19195
1.1228
1.13472
1.08865
1.10001
1.23241
1.21777
1.25805
1.24802
1.32396
1.29715
1.34148
1.3282
1.28107
1.29539
1.34659
1.30373
1.27877
1.37904
1.29804
1.29837
1.52689
1.51968
1.84606
1.81898
2.61548
2.48087
3.95846
2.98262
5.63089
18.1415
4.42563
8.08945
52.1344
252.511
502.118
1296.6
1412.25
1180.62
1228.66
1610.22
1973.05
2232.19
29.3299
1.17795
1.21735
2.02199
2.71508
8.90605
376.858
91.6116
184.851
625.172
436.686
230.09
299.215
634.173
654.353
319.833
410.412
664.114
607.629
527.141
419.936
171.519
194.33
187.615
178.241
153.368
157.356
152.092
152.946
156.303
166.768
118.731
122.029
95.7451
96.1646
85.7716
82.9667
112.608
84.2606
1.001
1.06034
0.890969
0.912777
0.956003
0.897247
0.913252
0.9135
0.917
0.933374
0.934158
1.05517
1.07046
1.01967
1.04267
0.989866
1.01106
0.96125
0.983511
0.958141
1.20659
1.18318
1.18136
1.18426
1.12978
1.14634
1.17927
1.14623
1.09631
1.11461
1.06783
1.08325
1.26461
1.24106
1.24012
1.30513
1.27974
1.41873
1.40565
1.39383
1.42676
1.54792
1.49934
1.50353
1.46472
1.43844
1.37221
1.33749
1.51338
1.45123
1.56272
2.04229
1.7998
3.35318
3.47603
2.42664
3.27297
5.42316
5.8314
23.8106
73.2547
19.4867
202.042
414.474
744.356
1415.36
1954.95
1970.26
2306.16
8029.59
136.878
1.10163
17.5237
45.8431
1.22005
1.30099
1.37894
2.23296
3.11866
7.98789
372.778
258.457
642.185
584.215
200.735
254.099
699.562
679.939
276.619
367.98
641.905
560.216
427.576
146.729
170.526
125.896
129.961
129.497
119.652
103.217
106.031
86.0008
89.7214
80.517
81.7654
79.4782
82.2331
1.05165
0.934844
0.980187
1.01469
1.02566
0.932352
0.953129
0.943927
0.951773
0.957945
0.959413
1.03391
1.05669
1.00774
1.03023
0.981681
1.00503
0.980609
1.06155
1.17894
1.17788
1.18503
1.16164
1.13986
1.11594
1.18842
1.11465
1.09515
1.09131
1.25947
1.22231
1.28778
1.32954
1.33365
1.41545
1.39691
1.5576
1.59891
1.65672
1.63114
1.85375
1.84063
1.78103
1.59393
1.55438
1.75557
1.71627
1.89081
1.87976
2.63465
2.54351
6.41639
6.59766
6.16319
4.66761
35.5589
26.1119
263.459
163.687
596.262
766.124
1117.49
1992.61
272.186
80.8597
134.754
1.26135
1.16986
12.4233
38.583
1.3491
1.6132
2.19233
2.65269
7.94826
550.801
429.707
715.214
694.831
176.612
232.081
728.944
653.242
532.443
418.055
274.621
125.226
145.494
97.9006
107.163
104.579
86.4639
90.1936
84.3635
84.954
85.9989
87.6836
1.11744
1.18048
0.983592
0.99804
1.07023
1.1393
0.976411
0.990769
0.977265
0.989987
0.989296
0.995707
1.05683
1.03962
1.01758
1.03431
1.01198
1.25354
1.09514
1.0789
1.07861
1.16921
1.17911
1.1451
1.23453
1.18694
1.15804
1.12809
1.34403
1.33121
1.42478
1.39283
1.52607
1.50906
1.7216
1.6731
1.92254
2.02109
2.51886
2.33808
2.21489
1.9972
1.91804
2.09203
2.08835
2.42252
2.49351
2.4651
5.32751
4.23322
38.6449
12.8365
17.6272
10.2535
285.395
155.768
750.242
519.77
1063.96
942.741
417.515
191.973
282.798
62.9773
124.037
1.43751
1.27411
11.89
32.5101
2.6068
1.53271
5.3915
676.743
581.303
757.7
774.666
237.93
173.913
144.465
736.613
544.131
440.072
309.742
254.379
102.061
116.778
87.1473
91.0284
85.7333
85.5743
90.9552
89.4931
1.21491
1.32077
1.02628
1.088
1.13761
1.25547
1.02455
1.05655
1.03575
1.01044
1.04894
1.04779
1.08203
1.05604
1.07412
1.33072
1.28691
1.14469
1.12967
1.14663
1.13446
1.19877
1.26813
1.18053
1.20515
1.17403
1.52369
1.51637
1.44891
1.66332
1.62483
1.87382
1.98878
1.94417
2.34758
2.28939
4.18491
3.2054
3.31159
2.99728
2.82415
2.71193
3.85158
3.84763
3.74783
3.387
6.44739
23.1174
16.2695
200.459
89.9489
93.8051
586.296
408.962
961.825
783.678
342.151
538.42
645.331
163.79
314.241
48.7613
114.616
1.45064
1.8388
7.5731
31.1446
2.02619
4.61334
794.95
768.135
795.314
775.637
851.046
149.88
174.924
115.957
660.53
503.26
333.859
280.189
171.013
87.3779
97.3385
85.3402
83.4537
91.4541
88.6026
1.36516
1.56865
1.10204
1.17287
1.25063
1.43546
1.11157
1.0868
1.14702
1.14386
1.14106
1.13666
1.12927
1.42686
1.32285
1.19925
1.21047
1.18014
1.23732
1.31065
1.25819
1.31356
1.25216
1.85253
1.76004
1.71789
1.57714
2.2886
2.5966
2.40149
2.61248
2.95986
2.7933
3.89663
3.32972
4.92768
5.43409
5.37327
3.66097
8.25663
8.51979
6.59241
76.06
38.3061
201.444
183.7
507.818
399.041
798.84
707.401
365.521
547.717
677.034
165.415
323.55
45.0365
113.801
2.51603
1.82882
7.9413
5.32917
24.0457
672.081
890.051
880.476
889.919
814.782
863.98