/*--------------------------------*- C++ -*----------------------------------*\
  =========                 |
  \\      /  F ield         | OpenFOAM: The Open Source CFD Toolbox
   \\    /   O peration     | Website:  https://openfoam.org
    \\  /    A nd           | Version:  8
     \\/     M anipulation  |
\*---------------------------------------------------------------------------*/
FoamFile
{
    version     2.0;
    format      ascii;
    class       volVectorField;
    location    "16000";
    object      U;
}
// * * * * * * * * * * * * * * * * * * * * * * * * * * * * * * * * * * * * * //

dimensions      [0 1 -1 0 0 0 0];

internalField   nonuniform List<vector> 
4109
(
(10.1197 0.000524252 0)
(10.1223 0.000554451 3.87692e-21)
(10.124 0.00250717 0)
(10.1218 -0.000216531 -8.35284e-21)
(10.1241 0.00150918 4.01679e-22)
(10.1269 0.0023746 6.68588e-23)
(10.1278 0.00251667 -2.46718e-22)
(10.1334 0.00402003 0)
(10.1288 0.00239396 0)
(10.123 0.000387661 -2.87559e-21)
(10.125 0.00129596 3.49654e-21)
(10.1338 0.00315014 1.53915e-21)
(10.1364 0.00798181 2.24829e-21)
(10.1368 0.0042994 -1.11437e-22)
(10.1346 0.00331781 2.37846e-21)
(10.13 0.00222748 -8.97315e-22)
(10.1243 0.000617121 5.53374e-22)
(10.1267 0.00160856 6.48837e-23)
(10.1356 0.00324079 0)
(10.1404 0.00370192 -3.23774e-21)
(10.159 0.00816957 1.84894e-21)
(10.1427 0.00842915 -5.07738e-21)
(10.1466 0.00601646 -5.76214e-22)
(10.1312 0.00229733 -2.24701e-21)
(10.1285 0.00176066 9.16363e-21)
(10.1256 0.000843241 3.10102e-21)
(10.1329 -0.00211472 0)
(10.1362 -0.00227744 8.96743e-22)
(10.1404 -0.00216502 -6.4958e-23)
(10.136 0.00326616 0)
(10.1419 0.00324133 0)
(10.1465 0.00465169 3.92652e-21)
(10.2209 -1.44559e-05 -1.01493e-21)
(10.1507 0.00705746 -7.10529e-21)
(10.1489 0.00602721 0)
(10.132 0.00234467 -1.6181e-22)
(10.1279 0.00154359 -9.10393e-21)
(10.1266 0.000753472 -5.05222e-21)
(10.1328 -0.00216525 -1.43291e-21)
(10.1249 -0.00161307 0)
(10.1421 -0.00303144 -1.33962e-22)
(10.1392 -0.00332718 4.89655e-22)
(10.1418 -0.00892374 -1.50487e-22)
(10.1365 0.00335007 -2.27587e-21)
(10.1421 0.00324177 0)
(9.48074 0.0260987 7.08002e-22)
(10.135 -0.000366789 3.80791e-22)
(10.1489 0.00467314 -1.41304e-22)
(10.1496 0.00403916 6.77255e-22)
(10.2167 -0.00104786 4.62803e-21)
(10.1535 0.00534639 4.2606e-21)
(10.1308 0.002033 -1.33608e-22)
(10.1292 0.00185368 -8.84612e-21)
(10.1281 0.00102609 1.98735e-21)
(10.1329 -0.00249844 -9.37941e-22)
(10.1266 -0.0018597 0)
(10.119 -0.000356092 0)
(10.1416 -0.00526681 1.24416e-22)
(10.143 -0.00416474 1.53683e-22)
(10.1389 -0.0034702 0)
(10.2401 -0.00275816 -1.44516e-22)
(8.88599 0.0142885 0)
(10.1362 0.00331285 -7.77333e-21)
(10.1427 0.00324421 0)
(10.1487 0.0044034 6.07743e-22)
(10.2461 -0.000856119 -3.86464e-22)
(9.74636 0.0281035 1.58288e-20)
(10.15 0.0037632 0)
(10.1508 0.00632565 -9.58018e-22)
(10.2301 -0.000410775 -5.8382e-22)
(10.1298 0.00127293 2.66423e-21)
(10.1309 0.00227158 5.9016e-21)
(10.1355 0.00388483 0)
(10.1319 0.00141302 1.20417e-20)
(10.1331 0.00226779 -1.79754e-20)
(10.1339 -0.0028428 9.45984e-22)
(10.1284 -0.00195063 0)
(10.1266 -0.00176013 0)
(10.1205 -0.00046633 0)
(10.2207 0.00676832 1.69575e-22)
(10.1468 -0.00463732 7.99249e-22)
(10.1416 -0.00485382 -7.34178e-22)
(10.1451 -0.00360127 8.74893e-23)
(10.1395 -0.00389126 0)
(10.3543 0.0186203 1.21024e-21)
(10.258 1.37796e-05 0)
(9.37366 -0.0429287 0)
(9.21595 0.0310658 -3.08738e-20)
(8.84227 0.0202507 -1.05165e-21)
(10.1348 0.00273657 3.04013e-21)
(10.1371 0.00330011 7.7765e-21)
(10.1432 0.00334117 0)
(10.1492 0.00450314 -3.18818e-22)
(10.1506 0.00351918 -1.9883e-22)
(10.2875 -0.00495113 0)
(9.99271 0.0122865 0)
(10.1483 0.00595241 0)
(10.2206 0.000554544 3.09645e-22)
(10.1372 0.0039476 6.34451e-22)
(10.1343 0.00322474 -1.18737e-20)
(10.1318 0.00249213 1.35209e-20)
(10.1365 0.00384746 8.54153e-21)
(10.1383 0.00452313 5.44101e-21)
(10.1347 0.00274239 6.33472e-21)
(10.1342 0.00122943 2.47088e-21)
(10.1347 -0.00332793 3.95338e-22)
(10.1305 -0.002631 3.49815e-22)
(10.1263 -0.00154043 0)
(10.1212 -0.000624366 2.82485e-21)
(10.2091 0.00183174 1.55368e-22)
(10.3295 0.0091725 0)
(10.1451 -0.00536093 -3.19743e-22)
(10.1455 -0.00427855 -3.13177e-23)
(10.1454 -0.00402472 0)
(10.1399 -0.00420307 0)
(9.01876 -0.0380108 -1.43719e-20)
(10.1706 -0.0132032 -1.07997e-21)
(9.90988 -0.0362001 1.72607e-20)
(9.5675 0.0395211 -7.21378e-21)
(9.04843 0.0114499 1.10078e-20)
(8.75679 -0.00318534 8.62124e-21)
(10.2989 0.00207006 1.37871e-22)
(10.1362 0.00331242 -1.39001e-20)
(10.1394 0.00391973 -2.40232e-21)
(10.1441 0.0036872 -7.6786e-22)
(10.1495 0.00479689 0)
(10.1514 0.00387812 6.33417e-22)
(10.1472 0.00612057 -2.02085e-21)
(10.0767 0.00441156 3.38591e-21)
(10.3091 -0.00161169 0)
(10.2078 0.000918298 2.35636e-22)
(10.1404 0.00522297 7.03686e-21)
(10.1373 0.00406444 -4.41977e-21)
(10.1387 0.00472784 -8.35427e-21)
(10.1409 0.005833 5.17582e-22)
(10.1372 0.0015567 0)
(10.1375 0.00380003 -5.02256e-21)
(10.1355 -0.00386065 -7.73201e-22)
(10.1307 -0.00281254 0)
(10.1268 -0.00171209 1.06643e-21)
(10.1224 -0.000758654 -2.82457e-21)
(10.2107 -0.00125644 -2.37675e-23)
(10.3261 -0.00305232 0)
(10.1429 -0.00662411 0)
(10.1466 -0.004432 -3.00991e-22)
(10.1457 -0.00420251 1.50092e-22)
(10.1404 -0.00469315 0)
(9.13905 -0.034622 -8.23142e-21)
(9.85909 -0.0391123 5.31966e-22)
(9.08637 0.00959393 0)
(9.64725 0.0186297 -3.79565e-21)
(8.76042 0.0225419 0)
(10.2684 -0.0012908 -1.28733e-22)
(10.1399 0.00439107 1.1083e-20)
(10.1395 0.00392017 2.40214e-21)
(10.145 0.00418459 7.30078e-22)
(10.1502 0.00562607 2.36609e-21)
(10.1514 0.00441488 1.11076e-21)
(10.1468 0.00697167 1.23858e-21)
(10.2021 0.00308927 -3.94051e-23)
(10.1214 0.00212813 -3.46289e-24)
(10.3213 -0.00264515 -2.35456e-22)
(10.1441 0.00620409 1.97764e-21)
(10.1402 0.00452678 0)
(10.1416 0.00627526 -3.21353e-22)
(10.1449 0.00726951 -1.70641e-21)
(10.1426 0.00640075 -2.12504e-22)
(10.141 0.00538791 0)
(10.1408 0.00178259 0)
(10.1365 -0.00456972 2.96966e-22)
(10.132 -0.00341329 1.15537e-22)
(10.1281 -0.00208696 -2.3022e-21)
(10.1232 -0.000649285 -4.76738e-22)
(10.2068 -0.00457502 -1.97356e-23)
(10.3266 -0.00412932 0)
(10.1409 -0.00766813 6.16106e-22)
(10.1483 -0.00454936 -1.47212e-22)
(10.1457 -0.00488655 -5.94656e-22)
(10.1413 -0.00561008 -3.63848e-22)
(9.77439 -0.0296347 -5.55254e-22)
(8.88282 -0.0128294 0)
(9.70549 0.0164752 4.04332e-24)
(9.0961 0.00601794 4.70717e-22)
(8.76181 0.0207211 1.06709e-22)
(10.286 0.00326061 1.77137e-22)
(10.1456 0.00444181 -2.54758e-23)
(10.1462 0.00486001 2.54674e-23)
(10.1519 0.00622089 -1.22713e-21)
(10.1479 0.00758797 -1.99748e-21)
(10.1549 0.00410901 -8.85617e-22)
(10.1906 0.00624333 1.06397e-21)
(10.1074 0.00499032 -2.27025e-22)
(10.3172 0.000780953 1.36741e-22)
(10.1469 0.00536131 -9.53781e-22)
(10.1477 0.00636555 4.99055e-22)
(10.146 0.00829851 -5.00926e-22)
(10.1487 0.00754862 -6.87529e-22)
(10.1477 0.00932764 4.96921e-22)
(10.1461 0.00770704 2.48817e-22)
(10.1421 0.00501479 1.87749e-21)
(10.1449 0.000844261 0)
(10.1378 -0.00529137 -6.33118e-22)
(10.1332 -0.00388067 3.06964e-22)
(10.1295 -0.00251137 1.975e-21)
(10.1248 -0.000893504 3.73237e-22)
(10.1929 -0.00628027 -3.46368e-22)
(10.3171 -0.00337483 -5.87515e-22)
(10.1398 -0.00785645 3.88727e-22)
(10.1495 -0.00533491 2.16674e-23)
(10.1463 -0.00649609 8.69191e-22)
(10.1428 -0.00686369 0)
(9.76131 -0.0191534 -1.31068e-21)
(8.86915 -0.0063695 6.33458e-22)
(9.07551 -0.00155637 0)
(9.68094 0.0117898 5.66064e-23)
(8.75446 0.0197218 -7.36935e-22)
(10.313 0.0116696 1.94672e-22)
(10.1528 0.00532802 0)
(10.1531 0.00567031 -9.37299e-22)
(10.1566 0.00420862 -3.05013e-21)
(10.1737 0.0130567 2.2166e-21)
(10.1067 0.00388901 1.5406e-24)
(10.3164 0.00249831 -4.71213e-22)
(10.1533 0.0070471 1.12049e-21)
(10.1536 0.0084793 2.09371e-21)
(10.1501 0.00887717 2.05844e-21)
(10.1543 0.0102007 -1.42939e-21)
(10.152 0.0101458 -1.04831e-21)
(10.1498 0.0104246 0)
(10.1473 0.00744096 -2.11407e-21)
(10.146 0.00574271 -2.15725e-21)
(10.1494 0.00083654 0)
(10.1392 -0.00591775 -2.90601e-21)
(10.1345 -0.0042289 7.60929e-21)
(10.1312 -0.0028788 3.37942e-21)
(10.1263 -0.000970279 -6.37119e-22)
(10.1769 -0.00776072 -2.50683e-22)
(10.3019 -0.00404569 1.59783e-22)
(10.1509 -0.00736098 -7.56223e-22)
(10.1405 -0.00800236 1.0256e-21)
(10.1407 -0.00630825 0)
(10.1483 -0.00888116 0)
(10.1446 -0.007882 0)
(9.82312 -0.0166319 2.88508e-22)
(8.87944 -0.00896495 4.83084e-22)
(9.68284 0.00520643 5.30334e-23)
(9.07975 -0.00894081 6.58236e-23)
(8.76073 0.0212524 -6.45625e-23)
(10.3286 0.0174212 -4.86127e-22)
(10.1584 0.00308344 0)
(10.1566 0.00473823 4.96962e-22)
(10.1652 0.0165058 7.45362e-22)
(10.1063 0.00382129 -1.11439e-21)
(10.3181 0.00806096 5.793e-22)
(10.1571 0.00685687 -3.40158e-22)
(10.1585 0.00753752 -2.72571e-22)
(10.1553 0.0119696 -4.01662e-22)
(10.1598 0.0101001 0)
(10.1567 0.0139856 0)
(10.1542 0.0113762 -3.23218e-22)
(10.1523 0.0113639 2.73213e-21)
(10.1505 0.00816541 -1.12778e-20)
(10.1503 0.00586132 0)
(10.1538 0.000958192 0)
(10.1372 -0.00502895 4.09837e-21)
(10.1344 -0.00404935 -5.5609e-21)
(10.1283 -0.00111105 2.36839e-21)
(10.1395 -0.00566688 4.10197e-21)
(10.1526 -0.0104294 1.87056e-21)
(10.279 -0.00503106 -3.3155e-21)
(10.1513 -0.00928901 -7.13311e-23)
(10.1429 -0.00689637 0)
(10.1463 -0.00853856 0)
(10.1507 -0.0100348 -5.74614e-22)
(8.88511 -0.00586642 2.93771e-22)
(9.86048 -0.0142346 5.1234e-22)
(9.08964 -0.024911 8.0753e-22)
(9.68728 -0.00845256 -7.78735e-22)
(8.76629 0.018528 0)
(10.3381 0.0272669 1.0549e-21)
(10.0158 -0.017484 1.28205e-19)
(10.1675 0.0158633 0)
(10.1636 0.00997264 -2.37309e-22)
(10.1129 0.00561077 -1.49807e-20)
(10.3296 0.00658614 -4.26223e-21)
(10.1529 0.013011 1.47728e-21)
(10.1558 0.0114628 -4.63695e-22)
(10.1612 0.0120502 2.90826e-21)
(10.154 0.0166789 4.60379e-22)
(10.1632 0.0145052 -8.09156e-23)
(10.1585 0.0158276 -1.12326e-22)
(10.1568 0.0125602 0)
(10.1552 0.0122781 -6.11254e-21)
(10.1543 0.00894818 2.27993e-20)
(10.1549 0.00632609 0)
(10.1556 0.00430242 7.05793e-21)
(10.1572 -0.000647296 0)
(10.129 -0.000618712 0)
(10.135 -0.00351867 2.40086e-21)
(10.1319 -0.0024671 -3.65308e-21)
(10.1405 -0.00555664 2.0655e-22)
(10.1444 -0.00710886 1.59796e-21)
(10.1387 -0.0145112 0)
(10.2596 -0.00886778 1.43998e-21)
(10.1558 -0.0112523 1.25225e-21)
(10.148 -0.00901213 6.01528e-22)
(10.1531 -0.0103931 0)
(9.88878 -0.00618401 1.22147e-21)
(8.8676 -0.000117379 -6.92819e-22)
(9.10584 -0.0297981 4.08752e-20)
(9.74105 -0.0149916 -2.8212e-20)
(8.78123 0.0160331 3.20808e-20)
(10.3336 0.0299941 -1.02842e-21)
(10.0116 -0.00270798 -2.12291e-19)
(10.0142 -0.0198766 5.54184e-20)
(10.0108 -0.0138459 -6.23098e-20)
(10.022 -0.0211862 -8.25134e-20)
(10.0172 -0.00651528 1.88206e-19)
(10.028 -0.0266706 7.31133e-20)
(9.97294 0.0171532 2.77598e-20)
(10.3405 -0.0152601 1.95474e-20)
(10.2798 -0.0294682 -1.85238e-20)
(10.1918 -0.000114301 -1.50743e-21)
(10.2033 0.00181347 -5.93656e-21)
(10.158 0.0114336 -2.92946e-22)
(10.1574 0.0177935 0)
(10.1617 0.0209366 -1.70198e-21)
(10.1652 0.0160282 0)
(10.161 0.0176569 0)
(10.1612 0.00788931 4.4023e-20)
(10.1599 0.0137786 1.11491e-21)
(10.1588 0.013066 1.90494e-20)
(10.1589 0.00966445 -1.91856e-20)
(10.1589 0.0036883 -6.82875e-21)
(10.1583 -0.00141413 0)
(10.1604 0.000790759 0)
(10.1565 -0.00255121 1.2734e-20)
(10.1319 -0.00168325 -5.358e-22)
(10.1355 -0.00321083 -7.51894e-21)
(10.1426 -0.0059524 -4.80839e-21)
(10.1462 -0.00745511 -5.17529e-21)
(10.1497 -0.00935506 -7.53383e-22)
(10.1389 -0.0197944 0)
(10.2597 -0.0109537 -2.95763e-21)
(10.1589 -0.0122205 -1.12712e-21)
(10.1552 -0.0102457 -1.64701e-23)
(9.89172 0.000612237 7.65841e-21)
(8.76562 0.00651036 5.7144e-22)
(8.97734 0.0202598 2.60263e-20)
(10.3267 0.0113447 9.25175e-22)
(10.0008 -0.00197631 -5.61883e-20)
(10.0042 -0.00162415 5.60717e-20)
(10.007 -0.00904338 0)
(10.0193 -0.02462 -2.26898e-20)
(10.0113 -0.024627 8.53744e-20)
(10.0069 -0.0176253 7.21173e-20)
(10.1498 -0.00528526 0)
(10.1551 -0.0109789 7.12018e-21)
(10.1567 -0.0250555 5.73318e-21)
(10.0258 -0.00783256 -2.88629e-21)
(10.0314 -0.0193433 -1.90208e-20)
(10.0242 -0.0120515 4.78656e-20)
(10.0341 -0.0269426 -6.51041e-21)
(10.0258 -0.030448 2.76686e-20)
(9.5177 0.0553441 -6.07639e-20)
(10.3523 -0.0333521 -4.39507e-21)
(10.3281 0.00760239 2.70569e-20)
(10.273 -0.0010541 -9.82704e-21)
(10.1691 0.0134174 -1.72638e-22)
(10.1652 0.0072471 1.74823e-21)
(10.1565 0.0225332 -1.33221e-20)
(10.1694 0.0209699 0)
(10.1676 0.0183128 0)
(10.164 0.0197391 -1.10124e-21)
(10.1639 0.0102045 0)
(10.1635 0.014999 0)
(10.1629 0.0135887 -6.51052e-21)
(10.1657 0.00202407 0)
(10.1645 0.00461447 -3.19107e-20)
(10.1608 -0.00498679 -7.69169e-20)
(10.1647 -0.00158572 5.201e-20)
(10.1657 -0.0165253 0)
(10.1735 -0.033946 1.61296e-20)
(10.1346 -0.00158279 7.96265e-21)
(10.1383 -0.00393471 -4.08996e-22)
(10.1454 -0.00665244 -1.99991e-20)
(10.148 -0.00788882 1.1297e-20)
(10.1514 -0.0097417 2.1301e-22)
(10.1569 -0.010443 -1.63181e-22)
(10.1441 -0.0206466 8.44897e-22)
(10.2491 -0.0144511 1.06049e-21)
(10.1609 -0.0117167 -4.73559e-22)
(9.93291 -0.019699 -1.18278e-20)
(8.57839 0.0082037 1.82493e-20)
(10.0004 -0.00286525 -1.16443e-19)
(10.003 -0.00951521 4.94068e-20)
(10.0163 -0.0308109 -2.80318e-20)
(10.0093 -0.0286157 1.95711e-21)
(10.0052 -0.0203413 -1.37682e-19)
(10.1443 -0.0173723 -1.2934e-20)
(10.1378 -0.00783692 1.1081e-20)
(10.1448 -0.0341343 0)
(10.1839 -0.0562241 -3.06204e-20)
(10.1624 -0.0451579 -1.6819e-20)
(10.0401 -0.0164011 1.67929e-22)
(10.0392 -0.0109812 -2.69455e-20)
(10.0414 -0.0308655 -1.91598e-22)
(10.0335 -0.0353866 -6.28826e-21)
(10.0237 -0.0376731 -2.91149e-20)
(8.65197 0.0442894 -4.4863e-20)
(9.83378 0.103529 1.29695e-20)
(10.3641 0.0416147 -1.30681e-20)
(10.3117 0.0226786 1.04185e-21)
(10.1779 0.0168203 4.74616e-21)
(10.1679 0.0100073 2.83498e-21)
(10.1714 0.0090717 9.34433e-21)
(10.1591 0.0225977 -2.56005e-21)
(10.17 0.0231661 2.8232e-21)
(10.1703 0.0206176 0)
(10.1676 0.0223327 -9.10073e-21)
(10.1674 0.0134749 -1.04481e-20)
(10.1678 0.0161215 0)
(10.1736 0.00194339 -2.25498e-20)
(10.1722 0.00573002 -1.12628e-20)
(10.1733 -0.0032997 4.96748e-20)
(10.1709 -0.00945906 -1.85347e-20)
(10.1811 -0.0231472 -1.13894e-20)
(10.1951 -0.0411516 4.78664e-20)
(10.1378 -0.0020354 -4.80704e-21)
(10.1416 -0.00475185 8.92235e-21)
(10.1632 -0.012825 2.23191e-21)
(10.1506 -0.00864789 6.59352e-21)
(10.1495 -0.00850735 0)
(10.153 -0.010305 1.78241e-21)
(10.1584 -0.0107076 9.94073e-23)
(10.1539 -0.0103392 0)
(10.1536 -0.017819 -1.83318e-21)
(10.1495 -0.0180185 -1.55555e-21)
(10.2878 -0.00592388 1.35466e-21)
(10.0371 -0.055216 3.2397e-20)
(10.0008 0.0022664 -1.47037e-20)
(10.0003 -0.00386096 0)
(10.0021 -0.0120459 3.14051e-20)
(10.0143 -0.0363963 -6.99856e-21)
(10.0068 -0.0331688 0)
(10.0036 -0.0233767 1.04668e-20)
(10.2207 -0.0690895 -5.43897e-20)
(10.1206 -0.010523 5.44742e-23)
(10.1008 -0.0129397 0)
(10.1302 -0.0240824 -5.99245e-21)
(10.1345 -0.0432589 -1.15196e-21)
(10.0575 -0.010083 0)
(10.0784 -0.00945776 0)
(10.1675 -0.0701207 1.45809e-20)
(10.148 -0.0551941 -2.93515e-22)
(10.051 -0.0260754 1.03779e-19)
(10.0433 -0.0388997 4.96567e-20)
(10.0332 -0.0448644 1.26969e-20)
(10.0211 -0.0446424 0)
(8.45733 -0.00195926 3.56735e-20)
(9.41747 0.108958 0)
(10.2836 0.0579934 1.0384e-21)
(10.3183 0.0251924 -1.20759e-21)
(10.1959 0.0181079 6.33682e-21)
(10.1722 0.0124988 1.20616e-20)
(10.177 0.0102281 0)
(10.1604 0.0241026 3.90632e-21)
(10.1718 0.0254225 -8.25982e-22)
(10.1732 0.0234598 -3.56431e-21)
(10.1721 0.0251145 -1.69256e-21)
(10.1729 0.016823 2.04117e-22)
(10.1839 0.00153037 -1.30357e-20)
(10.1807 0.00643201 1.46218e-20)
(10.1855 -0.00516266 1.35474e-20)
(10.1849 -0.01346 -1.22848e-20)
(10.201 -0.026956 -4.79262e-20)
(10.228 -0.0455803 3.40859e-24)
(10.1416 -0.0025763 -2.67129e-21)
(10.151 -0.00717352 -2.94515e-20)
(10.1463 -0.00598777 1.84856e-20)
(10.1726 -0.0182965 -2.1056e-21)
(10.1648 -0.012905 -6.38288e-22)
(10.1547 -0.0110906 -1.691e-21)
(10.1565 -0.0118341 0)
(10.1597 -0.0112391 1.30367e-21)
(10.1569 -0.0120234 8.4904e-21)
(10.1589 -0.0128613 0)
(9.66487 -0.0877998 -8.21247e-20)
(9.38428 -0.0905859 1.47287e-20)
(10.1402 -0.00816668 0)
(10.3265 0.00276975 5.35667e-21)
(10.0004 0.00279352 1.43918e-19)
(10.0022 0.00844512 -1.37239e-19)
(10.0046 0.0010377 0)
(10.0003 -0.00457057 -1.95994e-20)
(10.0014 -0.0137974 7.17957e-20)
(10.0115 -0.0425345 5.91685e-21)
(10.0038 -0.0352197 0)
(10.0013 -0.024538 -1.65421e-19)
(10.2051 -0.0912939 5.43637e-20)
(10.2663 -0.0674002 2.28043e-20)
(10.1189 -0.0326517 -2.71335e-21)
(10.1015 -0.0267133 0)
(10.1186 -0.0514655 4.48952e-21)
(10.082 -0.0232789 0)
(10.065 -0.0273005 -8.67241e-20)
(10.147 -0.0803466 1.58607e-20)
(10.1315 -0.0602033 4.1871e-21)
(10.0554 -0.0402259 -2.00266e-20)
(10.0446 -0.0518568 -1.1682e-20)
(10.0301 -0.0533002 4.03051e-20)
(10.0165 -0.0520267 -3.82583e-20)
(8.16081 -0.023163 5.05795e-21)
(9.11405 0.0769339 3.32002e-21)
(9.05078 -0.0677652 6.7796e-21)
(10.2357 0.0382707 -2.33238e-21)
(10.3408 0.027297 2.15766e-21)
(10.2081 0.0225594 -2.42046e-21)
(10.1787 0.0164837 0)
(10.1848 0.0145561 -1.95157e-20)
(10.1621 0.0273341 -4.61896e-21)
(10.1736 0.028246 7.70795e-21)
(10.1779 0.026633 1.51679e-21)
(10.1772 0.0273322 1.11723e-20)
(10.1908 0.010598 1.95092e-20)
(10.1962 0.00463773 0)
(10.2005 -0.0037124 0)
(10.2024 -0.0143308 0)
(10.2291 -0.0241487 0)
(10.2668 -0.0398312 -4.70878e-20)
(10.3057 -0.0633899 -7.3652e-20)
(10.1458 -0.00304323 2.67116e-21)
(10.1519 -0.00552273 8.23484e-21)
(10.1666 -0.01375 2.30834e-21)
(10.1658 -0.0139367 1.75367e-22)
(10.1611 -0.0122725 -1.56602e-21)
(10.1627 -0.0135244 -1.82572e-21)
(10.165 -0.0149097 0)
(10.1586 -0.0117217 0)
(10.1617 -0.0138048 0)
(10.1705 -0.00446698 0)
(10.3662 -0.0137462 3.9922e-20)
(10.2982 -0.029512 -3.02739e-20)
(10.0006 0.00484176 3.59103e-20)
(10.0023 0.0108637 -2.80895e-20)
(10.0049 0.0140306 -6.99172e-20)
(10.0137 0.00793737 0)
(10.0073 0.0109465 0)
(9.99993 -0.00490116 5.48453e-21)
(10.001 -0.015427 4.30296e-20)
(10.0078 -0.0459642 -1.27535e-21)
(10.0002 -0.0396331 -2.96302e-20)
(9.99941 -0.0301413 2.68041e-19)
(10.1823 -0.107157 1.50428e-22)
(10.2517 -0.0954116 4.59808e-20)
(10.3318 -0.104481 -7.2328e-20)
(10.0714 -0.0447458 -6.48927e-20)
(10.1023 -0.0508244 2.04348e-20)
(10.0892 -0.0406185 2.96583e-20)
(10.125 -0.0862214 0)
(10.1146 -0.0631122 -1.94582e-21)
(10.0586 -0.0588238 -1.60955e-20)
(10.0414 -0.062333 -4.43469e-20)
(10.0231 -0.0623621 2.24773e-20)
(10.0111 -0.0568737 -1.42088e-20)
(10.3284 -0.0677773 0)
(8.03798 -0.0144615 -4.7543e-21)
(8.96732 0.0594011 2.26184e-21)
(8.85636 -0.0372706 -5.15796e-21)
(10.2085 0.0304496 7.21391e-22)
(10.3522 0.029112 -7.24042e-22)
(10.2156 0.0308054 0)
(10.1841 0.0284749 0)
(10.1922 0.0277724 2.00602e-20)
(10.1773 0.032139 0)
(10.1639 0.0352945 -8.00509e-23)
(10.1836 0.0299114 -1.47257e-21)
(10.201 0.0245118 -2.00486e-20)
(10.2101 0.0182358 0)
(10.2187 0.00815261 0)
(10.2256 -0.00593441 0)
(10.2611 -0.0151236 0)
(10.2944 -0.0339351 3.68165e-20)
(10.3372 -0.0485909 2.15104e-19)
(10.3657 -0.0675896 1.72873e-20)
(10.1492 -0.00212708 0)
(10.1556 -0.00581658 -8.33616e-21)
(10.1675 -0.0131768 0)
(10.1667 -0.0146837 5.88722e-21)
(10.1676 -0.0170091 -1.54091e-20)
(10.168 -0.0192278 4.70909e-21)
(10.1679 -0.0166691 -1.60966e-20)
(10.1626 -0.0123255 2.59338e-21)
(10.1643 -0.0135586 0)
(10.167 -0.0177249 2.37661e-20)
(10.1791 -0.0113256 0)
(10.2687 0.0176666 1.65601e-20)
(10.0006 0.00602304 -6.63668e-20)
(10.024 0.0079226 2.02472e-20)
(10.0034 0.0164442 0)
(10.0063 0.0204348 -1.19886e-21)
(10.0114 0.0147338 5.69469e-20)
(9.99982 -0.00455085 0)
(9.99906 -0.0147623 -4.78932e-20)
(10.0024 -0.0501893 3.29366e-20)
(9.99526 -0.0388638 0)
(9.99592 -0.0297387 0)
(9.99822 -0.0211596 -1.81796e-21)
(10.1556 -0.117075 -1.86026e-21)
(10.3757 -0.143243 1.01194e-19)
(10.2208 -0.121511 -2.32095e-21)
(10.2941 -0.132133 -7.43146e-20)
(10.105 -0.0876872 5.36427e-20)
(10.0759 -0.0604686 0)
(10.0949 -0.066025 -2.41764e-20)
(10.0558 -0.0714694 0)
(10.0311 -0.0740435 4.9752e-21)
(10.0152 -0.0694445 4.29461e-20)
(10.0038 -0.0620497 -1.71478e-20)
(10.2778 -0.0441458 0)
(7.97168 -0.0142811 2.82155e-21)
(8.87354 0.0583637 -3.67588e-21)
(8.77233 -0.0338057 -7.5998e-22)
(10.1707 0.0248106 9.35131e-22)
(10.3547 0.0321663 1.26018e-21)
(10.2176 0.0455139 6.09882e-22)
(10.2025 0.0342565 2.18827e-20)
(10.1921 0.0326828 -1.06423e-20)
(10.184 0.0375209 1.28384e-21)
(10.1676 0.0486874 -1.38081e-21)
(10.2142 0.032362 -2.88727e-20)
(10.2268 0.0271634 1.71389e-20)
(10.2517 0.00459601 0)
(10.2397 0.0185358 0)
(10.2846 -0.0071905 -1.31584e-20)
(10.3523 -0.00679667 7.82379e-20)
(10.3227 -0.0105127 0)
(10.3868 -0.0273248 -2.17922e-19)
(10.4095 -0.0981506 -1.39789e-19)
(10.1534 -0.00199398 4.57359e-21)
(10.1592 -0.00540063 -2.47578e-21)
(10.1663 -0.0119427 1.78735e-20)
(10.1676 -0.0190217 4.09265e-21)
(10.1708 -0.0178548 1.33799e-20)
(10.1709 -0.0223871 -1.94372e-21)
(10.1721 -0.0177068 3.79284e-22)
(10.1683 -0.0143634 -2.19843e-21)
(10.1693 -0.0195399 8.63722e-21)
(10.1625 -0.0250316 0)
(10.243 -0.0113506 -2.61079e-22)
(10.0002 0.00575631 -4.06294e-20)
(10.0016 0.0153372 8.29556e-20)
(10.0388 0.0074385 -2.93707e-20)
(10.0282 0.0195774 -5.34837e-20)
(10.0054 0.0232428 3.27396e-20)
(10.0107 0.0237565 -2.45642e-20)
(10.0205 0.0216445 5.22407e-20)
(9.99812 -0.0115509 0)
(9.99964 -0.00370478 0)
(9.99563 -0.0495916 -1.67616e-20)
(9.99021 -0.0373704 -5.57172e-20)
(9.99263 -0.0285497 1.70701e-20)
(9.99557 -0.0198526 1.85979e-21)
(10.1294 -0.120833 -1.74431e-20)
(10.4297 -0.194477 -1.74377e-19)
(10.1871 -0.141246 -4.6736e-21)
(10.3357 -0.183371 2.66106e-20)
(10.2545 -0.170417 3.02857e-20)
(10.0896 -0.0917611 -4.3391e-20)
(10.0717 -0.0773366 -1.29997e-20)
(10.106 -0.120126 2.37852e-20)
(10.0438 -0.0869508 -7.22248e-20)
(10.0215 -0.084736 0)
(10.0055 -0.0762346 -1.33755e-20)
(9.99428 -0.0625251 -3.59408e-21)
(10.3033 -0.045677 5.32636e-22)
(7.93227 -0.0224389 0)
(8.78239 0.0616106 1.11693e-21)
(8.69496 -0.0299481 0)
(10.1348 0.0194301 -1.3115e-21)
(10.3542 0.0365278 -5.83619e-22)
(10.2088 0.0612097 7.81061e-23)
(10.2077 0.0498801 0)
(10.1942 0.0438921 9.0287e-22)
(10.1761 0.0610215 1.59355e-20)
(10.2256 0.0439418 0)
(10.24 0.0380006 3.38928e-20)
(10.2713 0.0132971 -4.40392e-21)
(10.256 0.0289593 -3.89975e-20)
(10.3098 0.0022674 -2.54794e-21)
(10.3587 0.0308461 9.68442e-20)
(10.3963 0.0074496 -4.45681e-20)
(10.4345 -0.0478748 1.62707e-19)
(10.4674 -0.138378 4.00244e-20)
(10.157 -0.00187719 0)
(10.1639 -0.00512238 0)
(10.1708 -0.011032 -2.42699e-20)
(10.1724 -0.0147327 6.47709e-22)
(10.1684 -0.0231183 -9.44043e-21)
(10.1721 -0.020553 0)
(10.1739 -0.026448 -2.41135e-21)
(10.1746 -0.019167 -3.81925e-21)
(10.1736 -0.0204015 3.51413e-21)
(10.169 -0.0270811 4.33255e-21)
(10.2607 -0.0136543 1.12353e-22)
(10.0001 0.0043365 3.3371e-20)
(10.0004 0.0131133 8.3817e-20)
(10.0018 0.0206529 -1.22569e-19)
(10.0037 0.0245468 -4.44594e-20)
(10.057 0.00733754 0)
(10.0413 0.0194833 3.4245e-20)
(10.0335 0.0301901 -4.13105e-20)
(10.0089 0.0291003 -1.43381e-20)
(10.0168 0.0302439 0)
(10.0272 0.0311029 -8.78599e-20)
(10.0774 0.00695326 -4.27026e-21)
(9.99704 -0.0080507 5.01429e-20)
(9.99954 -0.00229293 0)
(9.99985 0.00369586 0)
(9.98795 -0.0473296 -2.07327e-20)
(9.98541 -0.0315908 4.39287e-20)
(9.99237 -0.0154343 -5.40396e-20)
(9.98821 -0.0235112 0)
(10.1493 -0.155273 8.83138e-24)
(10.3835 -0.243615 1.50394e-20)
(10.2114 -0.194173 5.9131e-21)
(10.2897 -0.220056 3.13171e-22)
(10.0817 -0.11574 3.29378e-20)
(10.0606 -0.0989179 5.96834e-20)
(10.1123 -0.160274 0)
(9.98327 -0.0602479 4.40267e-20)
(10.0332 -0.103696 -7.75496e-22)
(10.0094 -0.0952432 0)
(9.99235 -0.0781894 -1.6551e-20)
(10.2868 -0.0421477 -8.767e-23)
(7.90013 -0.0266305 4.52458e-22)
(8.69869 0.0681058 -6.9484e-22)
(8.64875 -0.0268943 -1.25034e-21)
(10.2082 0.0708717 0)
(10.1219 0.00705055 1.14782e-22)
(10.3479 0.039636 -8.11643e-23)
(10.2063 0.0673035 -2.34851e-20)
(10.1901 0.0704524 3.65539e-21)
(10.2487 0.0628041 -7.70412e-21)
(10.2332 0.0612567 2.8637e-20)
(10.2906 0.0373339 -5.52366e-20)
(10.3239 0.0460268 -1.01176e-19)
(10.2712 0.0407493 7.21345e-20)
(10.3827 0.0483864 0)
(10.4462 0.00866507 9.75428e-20)
(10.4959 -0.0759416 0)
(10.1591 -0.00160705 4.30707e-21)
(10.1713 -0.00412379 4.4531e-20)
(10.1755 -0.00928089 0)
(10.1774 -0.0144108 -3.76485e-22)
(10.1783 -0.0210629 -1.04952e-20)
(10.1698 -0.0294004 0)
(10.1746 -0.0226182 0)
(10.1776 -0.029583 -3.53392e-22)
(10.1794 -0.0213495 1.01768e-20)
(10.1701 -0.0342245 1.10991e-21)
(10.2637 -0.0191957 -1.05414e-21)
(10.1563 0.000498652 -5.24063e-21)
(10.1517 0.00160785 0)
(9.99937 0.0130703 1.34872e-20)
(9.99925 0.0213915 0)
(10.0029 0.0287729 4.66935e-20)
(10.0068 0.0324852 1.43788e-20)
(10.0576 0.0203748 0)
(10.0441 0.031515 5.74835e-20)
(10.0345 0.0369049 3.79215e-21)
(10.0144 0.036731 0)
(10.0243 0.038035 0)
(10.0758 0.021917 -4.76293e-22)
(10.0983 0.00594261 -4.13061e-21)
(10.1178 0.00348908 0)
(10.1334 0.000149363 4.6121e-20)
(10.1468 0.00504467 -4.57154e-20)
(9.99927 0.000634146 0)
(9.99571 -0.0026423 0)
(9.99966 0.00198782 0)
(9.99823 0.011516 0)
(9.97161 -0.0514703 -2.1566e-20)
(9.98003 -0.0395402 5.48328e-20)
(9.98185 -0.0249661 0)
(9.98895 -0.00928115 5.35087e-20)
(10.1641 -0.213854 1.99047e-20)
(10.3306 -0.287065 2.33602e-20)
(10.2387 -0.251823 -2.14993e-20)
(10.0514 -0.123403 2.82084e-21)
(10.0774 -0.139366 -6.26988e-22)
(10.097 -0.191791 1.03994e-20)
(10.1189 -0.229882 -3.59014e-20)
(9.96075 -0.0655836 0)
(9.97674 -0.0760386 -2.64413e-21)
(10.0186 -0.118602 0)
(9.99124 -0.0998456 0)
(10.3061 -0.0435521 0)
(8.60761 0.073809 -1.72877e-22)
(7.85603 -0.0309038 -2.51607e-22)
(8.71528 -0.0394434 -1.01531e-20)
(10.3332 0.0514045 0)
(10.1663 -0.00310624 -4.32356e-21)
(10.2188 0.0957164 -4.00329e-21)
(10.2414 0.0727191 -1.4212e-20)
(10.3203 0.0856113 0)
(10.2789 0.0801841 0)
(10.3615 0.0805513 -3.92495e-20)
(10.4432 0.0642778 4.59407e-21)
(10.5128 -0.00722506 2.49181e-20)
(10.1693 0.000861138 -5.32151e-20)
(10.1803 -0.00709265 0)
(10.1829 -0.0128547 1.44184e-20)
(10.1842 -0.0208689 3.77508e-22)
(10.1847 -0.0231053 1.82354e-21)
(10.1725 -0.0367598 -1.15742e-21)
(10.1785 -0.0255504 1.53008e-21)
(10.1826 -0.0324798 0)
(10.2663 -0.0251394 2.97817e-22)
(10.1719 -0.0416368 -7.30913e-22)
(10.1568 0.0133387 2.21653e-20)
(10.1669 0.00522242 8.69719e-21)
(10.1612 0.00984204 -2.83022e-21)
(9.99798 0.0212348 1.64317e-20)
(9.99972 0.0292948 -3.19665e-20)
(10.005 0.0372206 -1.61439e-20)
(10.0118 0.041704 1.36997e-20)
(10.0586 0.0335606 0)
(10.0451 0.0409667 2.21924e-20)
(10.0334 0.0450303 -3.5874e-21)
(10.0219 0.0456702 1.12345e-21)
(10.0746 0.0364191 -1.73635e-20)
(10.0962 0.0270875 1.48588e-20)
(10.0917 0.0378172 -7.68052e-21)
(10.1582 0.0227875 1.34661e-20)
(10.1155 0.0254726 -1.24391e-23)
(10.1475 0.0238569 -1.16073e-21)
(10.1332 0.0238468 3.99675e-21)
(9.99665 0.00850081 0)
(9.99262 0.00360587 0)
(9.99564 0.019608 6.1112e-20)
(9.9854 0.00243255 -1.07261e-19)
(9.96078 -0.0417322 -5.67947e-20)
(9.97243 -0.0311505 2.5501e-20)
(9.98089 -0.0125433 1.70525e-20)
(9.94678 -0.0509432 0)
(10.1844 -0.276125 0)
(10.2717 -0.324367 1.52406e-20)
(10.0367 -0.155617 -2.34234e-20)
(10.0557 -0.21005 3.13962e-20)
(10.0613 -0.168735 3.06126e-20)
(10.0654 -0.248029 -1.58745e-20)
(10.1286 -0.293441 5.89796e-21)
(9.96897 -0.0962937 -4.44377e-20)
(9.94791 -0.0813689 5.28918e-20)
(9.99178 -0.12963 -3.85465e-20)
(10.3891 -0.0544084 2.71736e-21)
(8.51394 0.103535 8.97299e-21)
(7.78542 -0.0326869 -4.76266e-20)
(8.72367 -0.0980836 -5.93279e-21)
(10.3603 0.0609195 1.70815e-20)
(10.2567 0.016775 -1.85893e-20)
(10.2521 0.10852 4.24313e-20)
(10.263 0.0818787 -2.32582e-20)
(10.3417 0.117993 1.85401e-19)
(10.4263 0.118225 3.13486e-19)
(10.5173 0.0633927 -2.36897e-19)
(10.1814 -0.0017722 0)
(10.1886 -0.00960049 -3.02344e-20)
(10.1911 -0.0191312 -1.0881e-22)
(10.1918 -0.023949 -1.18392e-20)
(10.1893 -0.0342366 1.18735e-21)
(10.1781 -0.0446898 3.86958e-22)
(10.1844 -0.0294436 5.85606e-22)
(10.233 -0.0325773 -2.87594e-22)
(10.1693 -0.0499345 0)
(10.1672 0.014594 0)
(10.1816 0.00470554 0)
(9.99304 0.0283379 1.02014e-19)
(9.99683 0.0297967 -1.68298e-20)
(10.001 0.0385801 4.99106e-20)
(10.0089 0.0477087 0)
(10.0193 0.0526478 -4.36282e-20)
(10.059 0.0454611 -6.50063e-21)
(10.0451 0.0510392 -1.46077e-21)
(10.0316 0.0546954 1.48762e-20)
(10.0744 0.0484753 1.10677e-20)
(10.0909 0.0553942 1.73518e-20)
(10.1066 0.047375 -6.16603e-21)
(10.1684 0.0239621 5.92795e-21)
(10.1638 0.0307866 1.43451e-20)
(10.1218 0.0443139 1.12324e-21)
(10.1538 0.035059 -2.51411e-21)
(10.1396 0.0399767 -1.28565e-20)
(9.99257 0.0164917 5.8163e-20)
(9.98734 0.0117303 7.49536e-20)
(9.98909 0.0248802 -2.21282e-19)
(9.97702 0.000850789 -1.78257e-20)
(9.93091 -0.0667593 1.64531e-20)
(9.95032 -0.0236131 -2.77451e-19)
(9.96443 -0.0122915 8.90223e-20)
(9.93411 -0.0260317 0)
(9.98671 0.0317098 4.49377e-20)
(10.2074 -0.352902 -3.59921e-21)
(9.99988 -0.170986 0)
(10.0114 -0.202532 6.72844e-20)
(10.0204 -0.24933 -3.90374e-20)
(10.0699 -0.303597 0)
(10.1383 -0.371315 -3.59078e-21)
(9.94631 -0.162141 -9.43307e-20)
(9.95317 -0.12924 3.22639e-20)
(9.92724 -0.119696 -1.34234e-19)
(10.4166 -0.0956386 7.47796e-21)
(8.32341 0.223344 3.27837e-21)
(7.78358 -0.0421663 2.98744e-19)
(8.31877 -0.228054 -1.70309e-19)
(10.3276 0.149733 -2.00236e-21)
(10.2874 0.143042 -1.61577e-19)
(10.3539 0.148096 8.21731e-20)
(10.3952 0.167442 -1.85512e-19)
(10.5061 0.136329 -7.82425e-21)
(10.1937 -0.00420902 1.59146e-20)
(10.1984 -0.0150407 -3.40646e-23)
(10.2006 -0.0227646 1.69181e-20)
(10.1986 -0.0345448 -1.12471e-21)
(10.1849 -0.0540602 -7.51917e-22)
(10.1927 -0.0333409 1.8571e-21)
(10.2111 -0.052 1.62713e-22)
(10.1762 -0.0604916 2.00658e-20)
(10.1818 0.0133014 0)
(10.1974 0.00372349 -1.81559e-20)
(9.99125 0.0370873 -3.72118e-20)
(9.9965 0.0391329 -3.3346e-20)
(10.0037 0.0512541 0)
(10.0162 0.0614298 -2.78317e-20)
(10.0295 0.0631398 1.58955e-20)
(10.0593 0.0565699 6.24926e-21)
(10.0439 0.0635587 0)
(10.0759 0.0615568 -3.12379e-21)
(10.0945 0.0631621 -1.74882e-21)
(10.1133 0.0627337 4.49912e-21)
(10.1812 0.0243666 -1.03477e-20)
(10.1752 0.0349623 0)
(10.1314 0.0589205 -5.12001e-22)
(10.1642 0.0447202 -1.05667e-21)
(10.1492 0.0525879 -7.13413e-21)
(9.97908 0.0114785 -3.24845e-20)
(9.98208 0.0238835 0)