/*--------------------------------*- C++ -*----------------------------------*\
  =========                 |
  \\      /  F ield         | OpenFOAM: The Open Source CFD Toolbox
   \\    /   O peration     | Website:  https://openfoam.org
    \\  /    A nd           | Version:  8
     \\/     M anipulation  |
\*---------------------------------------------------------------------------*/
FoamFile
{
    version     2.0;
    format      ascii;
    class       volScalarField;
    location    "0.066";
    object      p;
}
// * * * * * * * * * * * * * * * * * * * * * * * * * * * * * * * * * * * * * //

dimensions      [0 2 -2 0 0 0 0];

internalField   nonuniform List<scalar> 
656
(
8.41855e-07
-0.235414
1.7286
-0.786699
0.18911
1.73123
-1.15106
-1.55284
2.055
1.70641
1.76606
-0.438536
0.386131
1.74772
2.0345
2.25919
1.63659
1.58731
2.26847
2.39139
1.80211
1.82117
1.7864
1.81791
-0.0678268
0.616183
1.77439
2.01725
2.25044
1.84381
1.86662
2.55672
2.39636
2.38637
2.55444
2.69001
2.15654
2.17264
2.13723
1.78224
1.85334
0.280471
0.818514
1.80944
2.00692
2.24337
2.18687
2.19943
2.86034
2.69083
2.55898
2.3821
2.55204
2.68875
2.86083
3.02752
2.16147
2.17585
2.18741
2.12038
2.1458
1.82908
2.00076
2.23604
2.19768
2.2065
3.02633
2.85842
2.69132
3.34494
2.3775
2.54909
2.68637
2.85972
3.02738
2.18272
2.19279
2.19461
2.19412
1.98959
2.22566
2.19341
2.19287
3.61246
3.34064
3.02254
2.85604
3.34548
3.56247
4.81661
2.3692
2.54658
2.68238
2.85997
3.02873
2.09325
2.08872
2.09005
2.09222
2.0941
2.09547
5.39497
5.07756
3.6536
3.32843
3.01719
3.35162
3.52785
4.58588
5.00428
2.11808
2.10183
2.09351
2.08718
2.08105
2.07561
3.46393
5.83363
5.3038
3.68494
3.31176
3.39808
2.13836
2.12602
2.11487
2.1056
2.09741
2.09023
3.53792
3.54919
6.25265
5.51766
3.70234
3.53239
2.22634
2.2117
2.19913
2.18878
2.17968
2.17177
3.18936
3.54078
3.65146
6.69745
5.77319
3.19319
2.32626
2.31373
2.30166
2.29137
2.28248
2.27499
3.12263
3.18754
3.53832
3.76316
7.19328
3.13345
3.07484
2.40773
2.40836
2.40214
2.39083
2.37925
2.36949
3.06624
3.11262
3.18554
3.52848
3.85138
3.0701
2.47136
2.50104
2.49438
2.47749
3.06514
3.05743
3.10333
3.1814
3.51423
3.07078
3.1882
2.31768
2.3056
3.08444
3.06814
3.05919
3.04998
3.09341
3.17533
3.15787
3.19266
3.21528
3.09291
3.08364
3.06483
3.0543
3.04296
3.0839
3.13687
3.15953
3.19722
3.21649
3.33981
3.09803
3.09264
3.08252
3.06246
3.04998
3.03662
3.1237
3.13688
3.16016
3.20033
3.22873
3.38688
3.10056
3.09839
3.09282
3.08204
3.06057
3.04623
3.11589
3.12321
3.13647
3.16001
3.20219
3.23959
3.09867
3.10081
3.09881
3.0931
3.08183
3.05899
3.11151
3.11514
3.12247
3.13574
3.15961
3.20307
3.10101
3.09839
3.10098
3.09925
3.09351
3.08169
3.11423
3.11113
3.11437
3.12169
3.13492
3.15921
3.10349
3.10073
3.09828
3.10108
3.09969
3.09389
3.10749
3.11039
3.11454
3.11084
3.11369
3.12093
3.13427
3.10334
3.10044
3.09825
3.10115
3.10011
3.10757
3.11076
3.11467
3.11068
3.11308
3.12031
3.1032
3.10018
3.09823
3.10121
3.10766
3.11109
3.11473
3.11058
3.11252
3.10307
3.09994
3.09822
3.10773
3.1114
3.11476
3.1105
3.10295
3.09973
3.1078
3.11168
3.11479
3.10284
3.10786
3.11193
0.611873
0.921024
2.12091
2.05032
1.83002
1.80103
1.83258
1.36904
1.47457
1.26355
1.80882
1.85002
2.1448
2.1437
2.16542
2.16157
2.10573
2.08037
2.01318
1.95877
1.7448
1.56626
1.91247
1.84332
1.99339
1.9909
1.88166
2.10613
2.10792
2.141
2.15625
2.16325
2.12635
2.08122
2.09203
2.00125
1.94345
2.13243
2.22599
2.11442
2.36213
2.27295
2.13649
2.07568
4.46957
4.70425
3.32633
2.5499
2.45665
3.1735
3.02229
2.68282
2.64617
2.96515
2.86551
2.80926
2.14184
2.11388
2.12916
2.17201
2.22537
2.21787
2.20872
2.2097
2.26272
2.16366
2.45113
2.39418
2.282
2.29789
3.96841
3.5352
3.45028
3.98475
3.79615
3.42527
3.28034
3.30996
3.16906
2.62052
2.52745
3.08315
2.97609
2.88836
2.81518
2.74297
2.14563
2.16421
2.19146
2.24988
2.27618
2.344
2.36882
2.56628
2.41774
2.36462
2.65329
2.48411
2.42298
3.6696
3.53954
3.48914
3.52738
3.44773
3.36964
3.22761
3.17438
3.05137
2.96044
2.87877
2.73931
2.70056
2.23579
2.25171
2.27591
2.36659
2.38526
2.43634
2.47436
2.58767
2.53959
2.80858
2.73292
2.59625
2.54058
3.18402
3.31864
3.32912
3.35972
3.2792
3.20679
3.11485
3.03137
2.8917
2.97757
2.91228
2.33688
2.55179
2.37806
2.39068
2.43924
2.45236
2.51739
2.85224
2.69175
2.73484
2.88258
2.59703
2.70578
2.67987
2.88289
3.12802
3.15298
3.00083
2.96645
3.08546
3.03095
3.19325
3.24013
3.21769
3.00976
2.98404
3.17393
3.02779
3.04245
2.4268
2.61964
2.53566
2.59436
2.47586
2.47896
2.51118
2.74685
2.815
2.86858
2.92058
2.67824
2.75337
2.70905
2.91802
2.97932
3.03651
3.03242
3.09734
3.14432
3.12455
3.06824
3.06561
3.0723
3.05995
3.08177
3.12735
3.05153
3.07591
3.03792
3.07595
3.0769
3.09099
3.0734
3.06653
3.07114
2.55996
2.45325
2.52481
2.63817
2.65752
2.53155
2.54422
2.63089
2.94428
2.79785
2.8386
2.67716
2.79818
2.98255
2.96402
3.04148
3.0703
3.09721
3.14036
3.14493
3.20283
3.22701
3.22744
3.19773
3.16939
3.18964
3.14313
3.20318
3.18231
3.18552
3.14434
3.11847
3.10758
3.05704
3.09835
3.10036
3.12571
3.09694
3.07062
3.06113
3.06647
3.06334
3.06715
3.09312
3.23875
2.44967
2.33464
2.41678
2.56391
2.593
2.6702
2.84043
2.82919
2.86794
3.1105
3.00034
3.00883
3.27075
3.16373
3.14119
3.30519
3.27931
3.36809
3.16553
3.13418
3.16559
3.15389
3.15734
3.08085
3.08245
3.13234
3.10817
3.11377
3.08885
3.06201
3.09258
3.09858
3.0873
3.09074
3.10223
3.37938
3.18471
3.06706
3.02381
3.02726
2.98073
2.77741
3.02489
3.32119
3.09142
3.09109
3.1463
3.13234
3.13894
3.12841
3.13776
3.09343
3.09131
3.12692
3.11503
3.10227
3.09167
3.10296
3.08921
3.54232
3.09771
3.09763
3.09742
3.09847
3.0995
3.10037
3.12714
3.11435
3.12566
3.12349
3.12477
3.09821
3.10538
3.10043
3.11333
3.11554
3.09936
3.10182
3.10021
3.10048
3.09943
3.10025
3.11774
3.11476
3.11618
3.11659
3.1162
3.10234
3.10476
3.10813
3.10971
3.11283
3.11172
3.10185
3.10301
3.10118
3.10177
3.11236
3.11224
3.11039
3.10533
3.10964
3.10717
3.11342
3.11209
3.10364
3.10515
3.10734
3.1099
3.10954
)
;

boundaryField
{
    movingWall
    {
        type            zeroGradient;
    }
    fixedWalls
    {
        type            zeroGradient;
    }
    frontAndBack
    {
        type            empty;
    }
    defaultFaces
    {
        type            empty;
    }
}


// ************************************************************************* //
