/*--------------------------------*- C++ -*----------------------------------*\
  =========                 |
  \\      /  F ield         | OpenFOAM: The Open Source CFD Toolbox
   \\    /   O peration     | Website:  https://openfoam.org
    \\  /    A nd           | Version:  8
     \\/     M anipulation  |
\*---------------------------------------------------------------------------*/
FoamFile
{
    version     2.0;
    format      ascii;
    class       surfaceScalarField;
    location    "0.066";
    object      phi;
}
// * * * * * * * * * * * * * * * * * * * * * * * * * * * * * * * * * * * * * //

dimensions      [0 3 -1 0 0 0 0];

internalField   nonuniform List<scalar> 
1107
(
0.000315988
-0.000643388
0.000633494
-0.000306094
0.000616968
-0.00030098
-2.96871e-05
0.000646655
0.000304962
0.000538556
-0.000106654
-0.000736864
-0.000968718
0.000630292
-9.76565e-05
0.000701464
0.000286064
-5.36019e-05
-1.49162e-05
-3.72722e-05
0.000683927
-3.30509e-05
1.43467e-05
-8.79499e-05
0.000180752
-0.000148834
-6.49692e-05
0.000300272
-0.000856385
-0.00126768
0.000599238
-0.000207465
0.000740101
0.000760967
-9.67751e-05
4.17072e-05
0.00081491
-9.56503e-05
3.58078e-06
-4.2836e-05
-1.13354e-05
0.000725634
0.000853065
2.9921e-05
-6.80763e-05
6.4473e-05
-0.000126751
-8.6556e-05
2.51488e-05
-4.86256e-05
0.000227395
-0.000140759
-0.000213387
0.000277848
-0.000115422
0.000296552
-0.000875089
-0.00151061
0.000539474
-0.000366497
0.00075827
0.000828765
-0.000185439
0.000899226
-0.000166111
5.21558e-06
-2.29028e-05
-6.1198e-06
-2.22909e-05
0.000865045
1.03112e-05
0.000755556
0.000946167
-0.000115018
0.000963466
-3.95896e-05
0.000951849
-2.38983e-05
3.55154e-05
3.54042e-05
-7.27548e-05
-4.92053e-05
1.3622e-05
-2.68434e-05
-8.24005e-05
-0.000131114
0.000322167
-0.000215174
-0.00032038
0.000397172
-0.000190426
0.000306687
-0.000784605
0.000459872
-0.00166379
-0.000570353
0.00074333
0.000880863
-0.000308033
0.000968437
-0.000253686
2.99797e-06
-1.22787e-05
-3.12183e-06
8.8158e-05
0.000916892
-5.32016e-05
0.000853466
-1.23194e-05
0.000765867
0.0010261
-0.00017268
0.00105046
-6.39533e-05
0.00103963
4.63516e-05
0.000999418
0.000128368
-0.000118504
0.000932815
0.000185107
5.74529e-05
-0.000104206
-3.56478e-05
2.76048e-05
-1.93573e-05
1.04141e-05
-9.65274e-06
-0.000129771
-0.000216517
-6.19175e-05
-0.000172059
0.000691199
-0.000801681
0.000902301
-0.000467003
0.00101089
-0.000362276
2.2082e-06
-4.07282e-06
-9.13628e-07
0.000865646
-6.72576e-05
0.000823935
-2.36707e-05
0.000753547
0.00082285
-0.000147396
0.000257361
0.00107957
-0.000241359
0.00111066
-9.50483e-05
0.00110235
5.46657e-05
0.00105825
0.000172468
0.000974486
0.000268872
4.56516e-05
-3.06068e-05
-7.69623e-05
2.44415e-05
-1.44377e-05
1.14681e-05
-6.38387e-06
4.27939e-06
-2.46403e-06
0.000877229
-0.000653033
0.00100525
-0.000490295
8.82577e-07
-6.76003e-07
-3.10502e-08
0.000334133
0.000670012
-0.000181295
0.000790604
-7.23547e-05
0.000785612
-2.89347e-05
0.000729877
0.000827224
0.000404623
0.000622671
0.000538686
0.000388293
-0.00129506
0.00152944
0.00108444
-0.000320547
0.0011243
-0.000134908
0.00112311
5.58542e-05
0.00107771
0.000217867
0.000975186
0.000371395
-3.58715e-05
-5.57976e-05
6.10624e-05
-1.92682e-05
-3.10411e-05
-9.09237e-06
-1.65597e-05
-3.37992e-06
-8.17648e-06
-6.70603e-07
-3.38532e-06
-7.01653e-07
0.000988011
0.0003454
-0.000945118
0.000371509
-0.000996556
0.000688048
-7.87385e-05
0.0007391
-2.58421e-05
0.000700942
0.000793453
0.000586355
0.000547548
0.000784591
0.000411886
0.0016651
0.000483345
0.000916552
-5.78817e-05
-9.54246e-05
9.75087e-05
-3.13308e-05
-5.7592e-05
-1.47862e-05
-3.31042e-05
-5.47329e-06
-1.74894e-05
-1.09569e-06
-7.76292e-06
-1.79734e-06
0.000101466
0.000300646
-5.67127e-05
0.000227761
-0.00080137
0.000357807
-0.000666316
0.000680877
-2.05159e-05
0.0006751
0.000415876
0.000168934
-4.46209e-05
-0.000125337
7.45331e-05
-2.45253e-05
-7.76876e-05
-1.18003e-05
-4.58292e-05
-4.48882e-06
-2.48009e-05
-9.73118e-07
-1.12786e-05
-2.77046e-06
0.000246487
0.000202948
-0.000148789
0.000201324
-3.02754e-05
0.000136229
-0.000579791
0.000342994
-0.000328433
0.000654584
0.000297699
0.000364664
-1.47552e-05
-0.000134208
2.36261e-05
-8.36154e-06
-8.40812e-05
-4.13806e-06
-5.00527e-05
-1.65991e-06
-2.7279e-05
-4.05008e-07
-1.25335e-05
-3.17547e-06
0.000150021
0.000136475
-8.35479e-05
0.000129084
-7.65489e-05
0.000120984
-1.50303e-05
7.00066e-05
-0.000306804
0.000326151
0.000201898
0.000245822
1.39978e-05
-0.000122552
-2.56533e-05
7.11315e-06
-7.71965e-05
3.16967e-06
-4.61092e-05
1.11829e-06
-2.52277e-05
1.79674e-07
-1.15949e-05
-2.99579e-06
0.000129925
7.89021e-05
-7.23527e-05
8.59802e-05
-4.04441e-05
7.41908e-05
-2.97561e-05
5.93477e-05
-4.37146e-06
1.93471e-05
0.000119975
0.000211848
-8.92736e-05
5.99876e-05
0.000149261
1.62217e-05
-3.5762e-05
-0.000103012
7.57802e-06
-6.85528e-05
3.23944e-06
-4.17706e-05
1.16895e-06
-2.31572e-05
2.25067e-07
-1.0651e-05
-2.77072e-06
3.85004e-05
-4.88719e-05
4.8628e-05
-3.50005e-05
4.90535e-05
-1.53067e-05
3.54259e-05
-5.83419e-06
1.49756e-05
-5.22945e-05
2.40033e-05
8.82789e-05
-3.18828e-05
5.77017e-05
-6.75895e-05
-1.25572e-05
-4.24827e-05
-2.81508e-06
-2.03932e-05
-5.5858e-06
1.45175e-05
-2.83117e-05
2.31295e-05
-2.33733e-05
2.72438e-05
-1.31907e-05
2.32003e-05
-3.08119e-06
9.14141e-06
4.93398e-06
-2.58341e-05
4.49033e-05
-2.07411e-06
7.06827e-06
7.25184e-06
-1.2246e-05
-1.29777e-05
5.60317e-05
-6.34472e-05
-1.85634e-05
-1.92805e-06
-8.22689e-06
1.50889e-05
2.33317e-06
-1.36497e-05
8.21759e-06
-1.33998e-05
1.26532e-05
-8.78275e-06
1.27253e-05
-2.71573e-06
6.06022e-06
1.56534e-06
4.38012e-06
-8.01956e-06
-4.97953e-07
3.46842e-06
4.09778e-06
-1.88822e-06
8.47704e-06
-1.68546e-05
1.02657e-05
-3.10149e-06
-3.36379e-07
1.50982e-06
-1.79196e-06
-4.10177e-06
8.98072e-07
-6.33019e-06
4.24449e-06
-4.99109e-06
5.79327e-06
-1.8507e-06
3.34449e-06
3.50769e-06
1.70551e-06
-3.64787e-06
1.67673e-06
2.20541e-06
1.18074e-07
1.46213e-06
-7.52916e-07
3.04726e-06
6.18268e-06
-2.68266e-06
4.81303e-06
-2.38857e-05
2.17554e-05
-2.17369e-06
2.17064e-06
-3.09844e-06
-2.237e-06
1.08653e-07
-1.41617e-06
-1.78753e-06
2.3695e-07
-2.32265e-06
1.84473e-06
-1.04255e-06
1.4938e-06
3.84539e-06
-3.3915e-07
1.45e-09
2.66161e-06
7.2061e-07
1.33834e-06
9.85143e-07
2.4237e-07
4.6684e-07
-2.00765e-07
5.65355e-07
-5.82947e-07
5.39594e-06
-1.21374e-06
1.74052e-06
-2.70046e-06
-1.40472e-06
1.33836e-06
-1.48037e-06
1.72857e-07
-9.3948e-07
-6.11097e-07
3.96205e-09
-4.81876e-07
4.51245e-07
2.70566e-06
-2.27573e-06
3.41546e-06
2.65592e-06
-3.33473e-07
1.79991e-06
2.59036e-07
8.83061e-07
3.44451e-07
1.8276e-07
8.33132e-08
-1.7594e-08
-1.6862e-06
-9.51236e-07
1.42369e-06
-6.60693e-07
9.96483e-07
-8.41484e-07
6.99465e-07
-8.72829e-07
1.06206e-07
-4.9615e-07
-1.10986e-07
-3.06307e-08
1.50219e-06
-2.03397e-06
3.23744e-06
1.72536e-06
-1.34518e-06
1.6833e-06
-2.16863e-07
1.07479e-06
6.73072e-08
4.62196e-07
6.5014e-08
6.57179e-08
-2.46898e-06
-1.39525e-06
2.17803e-06
-1.04579e-06
-5.66143e-07
-3.36729e-07
4.91728e-07
-4.54816e-07
2.81452e-07
-4.23052e-07
3.31076e-08
-1.41617e-07
2.15442e-06
1.27629e-06
-1.92851e-06
8.35407e-07
-1.14402e-06
1.01675e-06
-6.7863e-07
9.58223e-07
-1.003e-07
5.23914e-07
5.58753e-09
1.30731e-07
-2.93323e-06
-7.52516e-07
1.21677e-06
-1.63251e-06
-8.08531e-07
-6.09763e-07
-2.9311e-07
-1.52534e-07
1.89445e-07
-2.03816e-07
6.2217e-08
-1.0851e-07
-2.83227e-06
1.90899e-07
-2.91865e-07
1.29478e-06
-1.97263e-06
1.3509e-06
7.60791e-07
4.31706e-07
-5.58977e-07
5.43813e-07
-2.64221e-07
4.5003e-07
-2.64129e-08
1.36318e-07
-1.95783e-06
-4.27195e-07
-1.01281e-06
-4.05484e-07
-3.25305e-07
-1.20338e-07
-5.35261e-08
3.91551e-08
-4.6293e-08
-1.88243e-06
1.15508e-07
7.63244e-07
7.98122e-07
3.94375e-07
1.98934e-07
-2.14098e-07
2.41848e-07
-5.60411e-08
1.09906e-07
-1.22762e-06
-2.12387e-07
-5.71247e-07
-1.59542e-07
-1.46011e-07
-2.7853e-08
-7.13752e-09
-1.17325e-06
6.11447e-08
3.88111e-07
4.31382e-07
1.61926e-07
7.15519e-08
-4.3802e-08
5.38662e-08
-6.9928e-07
-8.43539e-08
-2.69781e-07
-3.57727e-08
-3.49908e-08
-6.64643e-07
2.6507e-08
1.5485e-07
1.95866e-07
3.76115e-08
1.00641e-08
-3.34397e-07
-1.97375e-08
-7.07636e-08
-3.15212e-07
7.32192e-09
3.55043e-08
4.76754e-08
-9.05009e-08
-8.31792e-08
0.000597179
-0.00138178
-0.00106661
0.000323402
-0.000539918
0.000860693
-0.000537291
0.000540312
0.00130424
-0.000763926
0.00111381
-0.000267971
0.00157007
-0.00183804
0.000503455
-0.000298226
-0.0013949
0.000630977
0.000139435
-0.000311494
-0.000400483
4.44272e-05
-0.000121389
-0.000267067
0.000331847
-0.00073233
0.00117716
-0.000845309
0.000639865
-0.000755038
0.00207404
-0.00144306
0.000235998
0.00130966
-0.00107366
0.00101144
0.000358403
0.00101924
-0.00177427
-0.000423821
-6.03271e-05
0.000230336
-0.000290663
-3.6731e-05
-0.000769061
-6.73881e-05
-0.000701673
0.00137391
-0.0014413
0.0005286
-0.00124567
0.0014281
-0.00185192
0.000354433
0.000887009
-0.000532576
-0.00124541
0.000755117
-0.00137912
0.00105857
-0.000623999
0.000990004
-0.00223568
-0.000861914
0.000861427
0.000803673
0.00177798
-0.000412903
0.000999258
-0.00149398
0.00135908
-0.000435415
-0.00116225
0.00074935
-0.000790858
-0.00132515
0.001381
3.39272e-05
-0.00129344
0.000502584
-0.00107557
0.000305429
-0.000193154
0.000132835
-0.000325989
-0.000568838
0.000281225
-0.000850063
-0.00116007
0.000202625
-0.0013627
-0.00203305
0.0011435
-0.00200541
-0.000610924
-1.30746e-05
-0.000667129
0.000231714
-0.000680204
-2.46588e-05
-0.00200839
-0.00203007
-0.000901621
0.00170529
-0.00011703
0.000882228
0.000281959
0.00149602
0.00198725
0.00166495
-2.65994e-05
0.000908827
-0.00101673
0.000990126
-0.000267375
-0.000586786
0.000620713
-0.000355072
-0.000971228
0.000703853
-0.000468645
-0.000797777
0.000329132
-0.000492348
0.000128365
-0.000251456
8.12004e-05
-0.000332657
-0.000768863
3.49409e-05
-0.000803804
-0.00132776
-0.000350953
-0.000976803
-0.00235935
0.000884883
-0.00123996
0.00020468
-0.00182539
-0.00142606
0.000186103
0.00092035
-0.00274574
-0.001439
0.000538897
0.00144836
0.00144772
-0.00100905
0.00137371
0.000655909
0.00210427
9.90289e-05
0.00134869
0.00108915
4.42948e-05
0.00104486
0.000748148
0.000218179
0.000529969
0.000547311
0.000675676
-0.000750382
-0.00030903
1.0032e-05
-0.000319062
-0.000793772
-0.000349445
-0.000444327
-0.00132625
-0.000424833
-0.000901415
-0.00186383
0.00201401
-0.0018279
-0.000731737
0.00173284
-0.00248323
-9.5061e-05
0.00128854
-0.00202028
-0.000575288
-0.000617038
0.00086286
0.000756672
-0.00121284
0.00196951
0.000891426
0.00224012
0.0014064
0.000833718
0.00245126
0.00298123
-0.000632595
0.00205912
-0.00142652
0.00311582
-0.00013459
-0.000344716
0.000565013
-0.0011403
-9.40277e-05
-0.000250688
-0.000538354
-0.000119155
-0.0004192
-0.00102057
-0.000455557
0.00182419
0.000234934
-0.00172912
-0.000291156
-0.000733193
0.000968127
-0.000977165
-0.000163136
0.000647984
-0.000939139
-0.000329181
-0.00117872
0.000445524
-0.000325254
0.000537102
0.000537606
2.79749e-05
-0.000605631
0.000577656
-0.00115074
-0.00012276
0.000349162
-0.000226402
-0.000728391
-0.000702822
0.00124043
0.00126669
0.00210041
-0.000341462
-0.00080928
-0.00176799
0.00121696
0.000883444
0.00108237
-0.000685611
-0.00028645
0.000394838
-0.000557974
-0.000676667
0.00022111
-0.000281829
-0.000125808
-0.000160641
-0.000545008
-0.000323898
-0.0012608
0.000321664
-0.000292676
-0.000608519
0.000315844
-0.000162996
-0.000502983
-5.49913e-05
0.000832164
-0.0005105
-0.000676536
0.00051354
-9.88802e-05
0.000368982
-1.98203e-05
0.000270102
-0.000219557
0.000199736
1.71951e-05
0.000144631
-0.000161826
-0.000202362
-0.000428764
-0.000259217
-0.000169546
-0.000112958
0.000262219
0.000424144
-0.000149181
0.000573325
0.00109125
0.000317245
-0.000576462
-0.000411146
-0.00122043
0.000468816
0.000622431
-0.000666649
-0.000553778
0.00135226
-2.15498e-05
0.000109829
0.00024067
0.000113863
-0.000274505
-1.08511e-05
-0.000466264
0.000184435
-0.000521256
-0.000100942
-0.000173562
-0.00042484
-0.000240405
0.000483678
2.98626e-05
-0.000799521
0.000289021
-0.000531915
1.0659e-05
-0.000242893
-0.000300828
0.00033069
-0.000346459
4.56314e-05
-7.6357e-05
-0.00023874
0.000162383
-3.90042e-05
-0.000131997
9.29927e-05
1.26337e-05
5.50496e-06
2.43736e-05
-2.98785e-05
1.27568e-05
-2.40437e-05
4.84173e-05
6.97902e-05
-9.38339e-05
8.24238e-05
-4.69254e-05
-4.69085e-05
-0.000208751
-2.42515e-05
-5.62702e-06
-7.11601e-05
-1.7873e-05
-0.00010227
-0.000106481
-0.000271816
-0.000104168
-0.000167648
-0.00068063
-9.42242e-05
0.000334894
0.000479101
0.00110153
-0.000443579
-0.000237051
0.000997357
0.000104175
1.87089e-05
2.61944e-05
0.000128538
4.65694e-05
8.19682e-05
0.000381463
5.40405e-05
-0.000227603
1.3549e-05
-7.32789e-05
-0.000154324
-0.000313684
-0.000303025
-0.000234896
-6.81291e-05
-0.000477789
-0.000147099
0.00019195
-2.95665e-05
-0.000237581
9.04824e-05
5.34624e-05
2.89614e-05
0.000146455
0.000116889
4.09799e-05
7.43734e-06
6.99413e-05
1.77031e-05
-4.91341e-05
-2.20259e-05
-0.000155615
-2.30856e-05
5.21257e-06
-4.51115e-05
-2.80702e-06
1.5227e-05
-1.38094e-07
4.14214e-05
-0.000103259
-5.23564e-05
-0.000270907
-0.000148659
-0.000122248
-0.00038571
0.000342138
3.93254e-05
0.000446313
6.06035e-05
9.43237e-06
3.1989e-05
9.14005e-05
0.000130726
9.70926e-05
-2.71513e-05
0.000213981
-0.000236334
8.20106e-05
-0.000304464
-1.85634e-05
-5.39592e-06
-8.05831e-06
7.92022e-06
-6.5485e-06
-4.07753e-05
-4.33624e-06
-9.31317e-05
-1.27133e-05
9.90626e-06
-1.70495e-05
6.25836e-06
1.14416e-05
-3.52142e-06
4.34307e-05
-7.52433e-05
-1.78884e-05
-0.000197491
-0.000136888
3.34533e-05
9.97739e-06
0.000164179
2.72914e-05
-8.40478e-06
4.88336e-06
5.08428e-06
-8.18272e-06
-1.46422e-06
-9.869e-06
-7.66777e-07
-7.41595e-06
-3.46724e-06
-3.03473e-05
1.32978e-05
-4.82358e-05
-1.81083e-06
8.06919e-06
1.1487e-05
8.07062e-06
1.3138e-05
-8.25467e-06
2.31154e-05
3.05014e-05
-7.38601e-06
-5.77928e-05
9.55696e-06
-4.48855e-07
-9.42015e-06
-8.70353e-06
-2.51849e-06
-4.89745e-06
-1.19386e-05
-2.04355e-06
-6.941e-06
2.8281e-06
8.65886e-06
1.23851e-05
-4.24995e-06
7.6654e-06
3.82067e-06
1.24795e-05
-2.56782e-06
-6.1357e-06
-9.95384e-06
-1.12564e-05
1.30258e-06
1.12863e-06
8.29405e-07
6.836e-06
4.06685e-06
-8.17767e-06
-3.76097e-06
-1.43134e-05
-4.76297e-06
-8.52395e-06
4.99714e-07
6.33628e-06
1.29792e-05
1.41079e-05
-1.29819e-05
-1.33151e-06
1.16793e-05
2.42858e-06
2.13833e-06
8.47461e-06
-7.30718e-06
-8.63869e-06
-8.93056e-06
6.50198e-06
)
;

boundaryField
{
    movingWall
    {
        type            calculated;
        value           uniform 0;
    }
    fixedWalls
    {
        type            calculated;
        value           uniform 0;
    }
    frontAndBack
    {
        type            empty;
        value           nonuniform List<scalar> 0();
    }
    defaultFaces
    {
        type            empty;
        value           nonuniform List<scalar> 0();
    }
}


// ************************************************************************* //
