/*--------------------------------*- C++ -*----------------------------------*\
  =========                 |
  \\      /  F ield         | OpenFOAM: The Open Source CFD Toolbox
   \\    /   O peration     | Website:  https://openfoam.org
    \\  /    A nd           | Version:  8
     \\/     M anipulation  |
\*---------------------------------------------------------------------------*/
FoamFile
{
    version     2.0;
    format      ascii;
    class       volVectorField;
    location    "0.066";
    object      U;
}
// * * * * * * * * * * * * * * * * * * * * * * * * * * * * * * * * * * * * * //

dimensions      [0 1 -1 0 0 0 0];

internalField   nonuniform List<vector> 
656
(
(0.743372 0.0565316 -9.65442e-25)
(0.927889 0.0140691 1.86665e-24)
(0.954788 -0.00127374 0)
(-0.0910749 0.118994 2.40002e-23)
(0.556742 0.0977245 1.12098e-23)
(0.841242 0.000939749 0)
(-0.0571798 0.0672277 -4.93902e-23)
(-0.0145962 0.018846 9.85106e-24)
(0.968227 -0.000150834 0)
(-0.000504596 0.138601 -2.37829e-24)
(-0.00304953 0.193132 -7.83498e-23)
(-0.117738 0.172053 0)
(0.376006 0.139834 1.00526e-23)
(0.715019 0.00930683 0)
(0.890989 0.00127445 -1.70666e-22)
(0.906565 0.000583004 4.77894e-23)
(0.00104045 0.0823435 9.70505e-24)
(0.00137428 0.0267218 0)
(0.971851 -7.63515e-05 -3.43354e-23)
(0.913658 0.000298405 -1.43717e-22)
(-0.0123884 0.092874 7.71108e-23)
(-0.00523407 0.0628727 0)
(-0.0239222 0.125115 1.33362e-24)
(-0.00789606 0.242544 1.53982e-22)
(-0.136115 0.223437 -1.67658e-22)
(0.210343 0.18042 -2.26587e-23)
(0.577675 0.0245874 0)
(0.800699 0.00637677 2.66448e-22)
(0.829491 0.00303189 -8.91617e-23)
(-0.00144234 0.0356648 0)
(-0.000151561 0.0114449 0)
(0.91698 0.000158215 5.13464e-23)
(0.973372 -4.69731e-05 -3.66604e-23)
(0.842953 0.00161695 1.95815e-22)
(0.849414 0.000810009 -5.18087e-23)
(0.854018 6.3213e-05 -1.0889e-22)
(-0.00677975 0.0608913 -1.05382e-22)
(-0.00280708 0.0409248 1.70711e-23)
(-0.0137926 0.0825108 -1.88326e-22)
(-0.0408483 0.158565 -1.577e-22)
(-0.0167099 0.282821 1.66501e-22)
(-0.143742 0.269547 -4.77709e-24)
(0.0686494 0.217917 4.55153e-22)
(0.433183 0.0474135 0)
(0.696558 0.0162319 0)
(0.739377 0.00802569 -3.69818e-22)
(-0.000821633 0.0230283 -5.40256e-24)
(-0.00012882 0.00732311 0)
(0.854929 -0.000883139 1.20145e-22)
(0.919445 2.83758e-05 -2.78105e-23)
(0.974006 -2.02327e-05 4.92917e-24)
(0.759761 0.00435417 0)
(0.769749 0.00218436 0)
(0.776823 0.000151329 -1.06666e-22)
(0.778366 -0.00237206 4.5971e-22)
(0.763608 -0.00604249 0)
(-0.0103746 0.0366051 2.00133e-22)
(-0.00502151 0.0257405 2.95148e-22)
(-0.00202822 0.0165177 -2.87516e-22)
(-0.0250269 0.104804 -1.85264e-22)
(-0.0193445 0.0489378 5.84791e-22)
(0.286811 0.0796715 -1.32799e-22)
(0.578468 0.0319859 1.75136e-22)
(0.635195 0.0165785 -5.20765e-22)
(-0.000553549 0.00884777 4.53707e-23)
(-6.70938e-05 0.0025619 6.09056e-23)
(0.844848 -0.00224213 -2.54663e-22)
(0.919992 -0.000146364 8.54508e-23)
(0.974685 1.28931e-05 5.47833e-24)
(0.726755 -0.0151969 -1.16783e-23)
(0.66268 0.00911693 0)
(0.676436 0.00466227 1.93316e-22)
(0.686359 0.000384991 2.04132e-22)
(0.688941 -0.00481315 -8.82338e-22)
(0.669685 -0.0125417 2.27281e-22)
(-0.00839898 0.0139355 8.88431e-22)
(-0.00405374 0.00913858 -6.8342e-24)
(-0.00182776 0.00550549 0)
(-0.000643632 0.00295327 1.05772e-22)
(0.447784 0.0558263 0)
(0.516944 0.0303652 6.66109e-22)
(-8.94528e-05 0.00127345 -1.00136e-22)
(5.53253e-05 0.000241424 -3.08631e-23)
(0.604778 -0.0240897 4.71817e-22)
(0.820251 -0.00592544 1.49695e-22)
(0.914478 -0.000374839 0)
(0.975028 4.19987e-05 -5.2836e-23)
(0.619955 -0.030229 -2.88774e-22)
(0.468197 -0.0472364 7.26196e-22)
(0.251475 -0.190756 -8.79085e-22)
(0.550809 0.0170762 0)
(0.568124 0.00874457 4.66274e-23)
(0.581205 0.000989917 -1.45194e-22)
(0.585503 -0.00871541 5.1189e-22)
(0.562545 -0.0231783 -8.6962e-22)
(-0.0147918 0.00626437 3.7378e-22)
(-0.00924768 0.00306682 -3.98858e-22)
(-0.00537265 0.00139798 -1.97737e-22)
(-0.00279674 0.000480343 3.91353e-22)
(-0.00116598 4.38495e-05 4.71305e-23)
(-0.000203228 -6.2061e-05 -2.84979e-23)
(-0.13673 -0.250238 5.90066e-23)
(0.411941 -0.147966 -6.13839e-23)
(0.732773 -0.00901608 -7.9585e-22)
(0.901181 -0.00112438 0)
(0.973744 0.000109594 0)
(0.499697 -0.0539447 5.5215e-22)
(0.325497 -0.0810108 -2.77333e-22)
(0.106277 -0.230033 1.02582e-22)
(-0.141411 -0.298193 1.38428e-21)
(-0.0465814 0.011255 0)
(-0.0340219 0.00583956 1.86866e-22)
(-0.0235922 0.00285796 -6.59986e-22)
(-0.0149884 0.00114534 1.84044e-22)
(-0.00792747 0.00028763 -4.38533e-23)
(-0.00212814 2.18005e-05 -2.72271e-23)
(-0.00754569 -0.289018 0)
(-0.120665 -0.194924 0)
(0.582912 -0.103402 4.88168e-22)
(0.850384 -0.000878629 -3.99586e-23)
(0.970604 0.000203295 -1.03041e-22)
(-0.0155607 -0.332904 -1.64648e-21)
(-0.0760013 0.0100098 0)
(-0.0568624 0.0055272 1.93154e-22)
(-0.0403705 0.00276345 -1.41186e-24)
(-0.0262674 0.00117175 9.54907e-23)
(-0.0142714 0.000360381 -4.48743e-23)
(-0.00411649 7.18099e-05 0)
(-0.0276234 -0.164256 -5.51166e-22)
(-0.00296354 -0.23322 0)
(-0.0949971 -0.136205 5.08315e-22)
(0.757889 -0.0597746 0)
(0.956554 0.00135216 7.64124e-23)
(-0.0466808 -0.20507 0)
(-0.0980812 0.00828835 0)
(-0.0741644 0.00460827 1.20081e-22)
(-0.053174 0.00234346 -3.4816e-22)
(-0.0349411 0.00102798 1.12649e-22)
(-0.0192394 0.00034539 5.03494e-23)
(-0.00578425 8.89894e-05 -1.68743e-23)
(-0.0156551 -0.119003 2.82624e-22)
(-0.014538 -0.123338 0)
(-0.000248519 -0.169212 -4.45517e-22)
(-0.0605237 -0.0776118 4.30417e-22)
(0.931395 -0.0147218 0)
(-0.0284337 -0.148563 0)
(-0.106997 0.00724004 1.53159e-22)
(-0.0809957 0.00408661 -1.47866e-22)
(-0.0581612 0.00207746 1.43077e-22)
(-0.0382891 0.000905802 -2.73895e-22)
(-0.0211541 0.0003046 3.76665e-22)
(-0.00650394 7.86166e-05 -5.022e-23)
(-0.0133558 -0.0678385 2.43769e-22)
(-0.00771831 -0.0890814 -5.22017e-22)
(-0.00596379 -0.0840575 1.52073e-22)
(0.00181243 -0.100768 -4.61979e-22)
(-0.014189 -0.0214026 1.30993e-23)
(-0.0241121 -0.0868246 0)
(-0.0154572 -0.0451966 -5.4985e-23)
(-0.107952 0.00780612 -1.88587e-22)
(-0.0816163 0.00492738 7.60143e-22)
(-0.0586885 0.00264367 -7.25787e-22)
(-0.0387719 0.00113964 0)
(-0.0215116 0.000351473 0)
(-0.00671171 7.27308e-05 -5.50916e-24)
(-0.00849203 -0.0350673 1.17254e-22)
(-0.00666713 -0.0497775 3.4439e-24)
(-0.00302979 -0.0605322 3.97955e-22)
(-0.00125813 -0.0475619 -1.49542e-22)
(0.00233741 -0.031026 0)
(-0.00873448 -0.0196211 8.9116e-22)
(-0.0632682 0.00408971 8.29127e-22)
(-0.0414364 0.00256983 -8.57333e-22)
(-0.0227728 0.000908071 0)
(-0.00700747 0.000157875 -7.76654e-24)
(-0.0048044 -0.014622 -2.36316e-22)
(-0.00418687 -0.0254745 -9.16759e-23)
(-0.00272996 -0.0332828 1.89005e-22)
(-0.000643045 -0.0342449 -1.29326e-22)
(0.000182366 -0.0143637 4.94292e-23)
(-0.00447163 -0.00526325 0)
(-0.00270411 0.00319805 -1.02404e-21)
(-0.0505183 0.00117909 0)
(-0.0176815 0.000393639 -2.71421e-23)
(-0.00152102 0.000801241 0)
(-0.00237997 -0.00358764 -2.4056e-22)
(-0.00234408 -0.0102289 -4.59278e-22)
(-0.00172088 -0.0168562 -6.24879e-23)
(-0.000724316 -0.0186217 1.27155e-22)
(7.65096e-05 -0.0106515 -4.96195e-23)
(-0.00107904 -0.000901228 2.08807e-21)
(-0.00130526 0.00154613 2.17902e-21)
(-0.00310631 0.00369059 7.02055e-23)
(-0.000132234 0.00198546 -4.8142e-22)
(-0.000748664 0.00104563 -9.81691e-25)
(-0.00111766 -0.00225124 1.24587e-22)
(-0.000957925 -0.00653364 3.71989e-22)
(-0.000483874 -0.00934775 7.62155e-24)
(-6.56809e-05 -0.00583754 -2.2791e-23)
(-0.000146937 -0.00257242 -1.88249e-24)
(-0.000452723 -0.00141046 -1.7469e-21)
(-0.000547226 0.000677766 -5.26908e-22)
(-0.0013607 0.00157697 0)
(-0.00319267 0.00913847 1.51716e-21)
(0.000388496 0.00150706 -2.58747e-22)
(-4.04059e-06 0.00176171 2.56504e-22)
(-0.000314279 0.00105669 1.28437e-22)
(-0.000439927 -0.00126618 0)
(-0.000272 -0.00350439 -1.21921e-22)
(-6.4757e-05 -0.00293285 1.71269e-23)
(0.000229768 -0.00282016 8.27426e-22)
(1.31805e-05 -0.00241576 3.33747e-22)
(-0.000161926 -0.00146132 1.96691e-22)
(-0.000173741 0.000192642 5.36019e-23)
(-0.000334754 0.00054495 -6.14587e-23)
(-0.00045964 0.00211859 1.09236e-21)
(0.000309687 0.000533792 1.08135e-21)
(0.000247964 0.00126694 -4.04758e-22)
(2.97646e-05 0.00143022 -2.63975e-22)
(-0.000107104 0.000882257 -1.28486e-22)
(-0.000115767 -0.000584301 0)
(-3.96579e-05 -0.00106172 -1.12743e-23)
(0.000527348 -0.00205543 0)
(0.000184952 -0.00240126 -2.863e-22)
(4.72447e-05 -0.00200676 -9.8649e-22)
(-3.76124e-05 -0.00121378 3.21484e-22)
(-2.21476e-05 -2.86988e-05 -3.58201e-22)
(-1.24828e-05 1.17354e-05 9.65569e-24)
(0.000531095 0.00019168 -4.69795e-22)
(0.000171222 0.000398241 7.16201e-22)
(0.000139288 0.000978899 -6.92978e-22)
(2.76043e-05 0.00103433 1.32346e-22)
(-1.72579e-05 0.000582994 0)
(-1.09946e-05 -0.000142046 1.11475e-23)
(0.000388364 -0.000697692 0)
(0.000316411 -0.00169366 5.50361e-22)
(0.000114976 -0.00187286 7.16433e-22)
(3.78264e-05 -0.00146438 9.39667e-22)
(8.25132e-06 -0.000790757 -3.33794e-22)
(9.77952e-06 -5.5125e-05 -2.2047e-23)
(0.00120305 0.000276763 -5.6081e-22)
(0.000377759 0.000104232 0)
(8.35678e-05 0.000272867 5.14326e-22)
(6.47684e-05 0.000677463 0)
(1.68201e-05 0.000613535 0)
(6.22226e-06 0.000211209 0)
(0.000717607 -0.000234437 6.27181e-22)
(0.000209598 -0.000523752 -5.69267e-22)
(0.000168659 -0.00128578 -5.60023e-22)
(5.82412e-05 -0.00130685 -4.18074e-22)
(2.38433e-05 -0.000871278 -4.34753e-22)
(1.31831e-05 -0.000279174 1.31219e-23)
(0.00168261 0.000145403 0)
(0.000959388 0.000158878 1.40554e-22)
(0.000249362 5.14561e-05 0)
(3.22874e-05 0.00016703 1.98719e-27)
(2.19372e-05 0.000384554 0)
(8.66387e-06 0.000196357 -8.98031e-23)
(0.00183068 -2.65742e-05 0)
(0.00156146 -0.00025772 -5.66054e-22)
(0.000521416 -0.000131698 -1.57988e-22)
(9.92913e-05 -0.000359606 2.91847e-22)
(7.55785e-05 -0.000876169 -4.14961e-22)
(2.45208e-05 -0.000749123 -1.31462e-22)
(1.2286e-05 -0.00028036 9.15674e-23)
(0.00135082 8.22163e-05 -1.88763e-23)
(0.000714163 8.23207e-05 -2.10201e-22)
(0.000149046 1.99993e-05 0)
(6.30912e-06 8.28964e-05 -1.0821e-22)
(5.51033e-06 0.000112449 9.05922e-23)
(0.00146793 -1.79651e-05 2.0989e-24)
(0.00124514 -0.000151576 6.35702e-22)
(0.000352035 -6.59283e-05 -4.72092e-27)
(3.77276e-05 -0.000220861 1.34822e-25)
(2.45883e-05 -0.000489827 -2.65273e-22)
(9.49075e-06 -0.000226566 8.36329e-23)
(0.00101582 4.24864e-05 1.48569e-22)
(0.000482282 3.63123e-05 1.02542e-22)
(7.33095e-05 3.85258e-06 -1.26142e-22)
(-1.21768e-06 1.91157e-05 2.30052e-23)
(0.00110383 -1.06841e-05 2.09439e-24)
(0.00092971 -8.1122e-05 -1.40606e-22)
(0.000215555 -2.60964e-05 4.54165e-22)
(7.21704e-06 -0.000110229 -2.12768e-22)
(6.00543e-06 -0.000138895 3.40141e-26)
(0.000694812 1.89433e-05 0)
(0.000270898 1.19625e-05 1.13807e-22)
(1.73439e-05 -1.10012e-06 7.96666e-23)
(0.000755517 -5.76958e-06 0)
(0.000630498 -3.70302e-05 -2.05698e-22)
(0.000108786 -5.33564e-06 3.95906e-22)
(-1.46039e-06 -2.55497e-05 4.39586e-23)
(0.000397593 6.49617e-06 -9.70969e-25)
(8.25365e-05 2.82505e-06 -1.43009e-22)
(0.000432854 -2.79006e-06 9.69707e-25)
(0.000355967 -1.2944e-05 -1.14032e-22)
(2.67033e-05 1.18414e-06 1.12933e-22)
(0.000128739 1.65248e-06 4.33796e-23)
(0.000140436 -1.23137e-06 0)
(0.000109329 -3.58371e-06 -1.09966e-23)
(-0.142805 0.304015 2.22384e-21)
(-0.0269623 0.258916 5.09921e-22)
(-0.0419224 0.128298 0)
(-0.0753955 0.189539 2.78625e-21)
(-0.0629117 0.194211 -2.94437e-21)
(-0.0730219 0.268242 0)
(-0.0373495 0.311079 0)
(-0.0980449 0.353176 -1.02569e-21)
(-0.08493 0.314173 0)
(-0.0388405 0.266567 -1.88531e-21)
(0.152159 0.1267 4.23771e-21)
(-0.0955073 0.278836 0)
(-0.0338101 0.0636964 -3.65701e-22)
(-0.0560703 0.10525 0)
(-0.0162074 0.0192662 -3.81813e-21)
(-0.0385989 0.0469836 3.90726e-21)
(-0.0831655 0.121715 -2.27029e-21)
(-0.114795 0.159413 0)
(-0.0954011 0.203483 0)
(-0.119101 0.240238 6.18365e-22)
(-0.10878 0.295514 0)
(-0.0974968 0.289535 1.95869e-21)
(-0.0152758 0.194477 2.36968e-21)
(0.0946762 0.155499 -5.71833e-21)
(0.302805 0.0912239 1.12339e-21)
(-0.149953 0.235265 -5.90027e-22)
(-0.140544 0.252465 0)
(-0.0215704 0.0120704 -3.15877e-21)
(-0.0491882 0.0286523 8.65335e-22)
(-0.0607816 0.0521564 7.20354e-22)
(-0.0913817 0.0818725 2.30839e-21)
(-0.121537 0.0806712 -4.44504e-21)
(-0.167503 0.115464 -3.93331e-21)
(-0.159414 0.156943 -3.00647e-21)
(-0.18449 0.185489 5.63129e-21)
(-0.130937 0.208739 -1.64175e-21)
(-0.0600061 0.184077 -1.71406e-21)
(0.0433018 0.128471 0)
(0.387478 0.0504111 -5.74682e-21)
(0.190362 0.106432 0)
(0.423905 0.0298068 0)
(0.243683 0.0593153 4.83681e-21)
(-0.206808 0.172869 0)
(-0.178851 0.179859 0)
(-0.0108544 -0.27736 6.03711e-21)
(-0.146119 -0.330363 0)
(0.386514 -0.0835055 0)
(0.436569 0.0148264 -1.97023e-22)
(0.273566 0.0341635 0)
(0.269479 -0.094432 0)
(0.456489 -0.0376404 1.18321e-21)
(0.458386 0.00178723 3.69634e-21)
(0.296533 0.00854494 0)
(0.319969 -0.0442441 0)
(0.473809 -0.0152633 0)
(0.325042 -0.0149219 -3.75316e-21)
(-0.0639568 0.0225513 1.14954e-21)
(-0.0974188 0.0360217 -1.44533e-21)
(-0.12052 0.048591 4.75473e-21)
(-0.173504 0.054802 0)
(-0.202298 0.0851076 0)
(-0.231685 0.0954619 -3.10484e-21)
(-0.249591 0.12007 -2.3631e-21)
(-0.152324 0.139187 0)
(0.067463 0.080406 3.34717e-21)
(-0.0352968 0.118021 0)
(0.151916 0.0435513 0)
(0.00477377 0.068189 -3.61974e-21)
(-0.267026 0.106369 7.84734e-21)
(-0.228676 0.11329 -2.31888e-21)
(-0.011226 -0.264226 -3.40717e-21)
(0.172333 -0.137723 7.67055e-21)
(0.147187 -0.156974 -6.00216e-21)
(-0.114836 -0.386993 1.70474e-21)
(-0.0771602 -0.329021 -3.7105e-21)
(-0.0361812 -0.360367 2.43752e-22)
(0.0476961 -0.183738 -6.36436e-21)
(0.0510956 -0.153917 2.08616e-21)
(0.149683 -0.11014 3.22718e-21)
(0.133952 0.0100452 0)
(0.0258472 0.0381075 0)
(0.0864592 -0.0943231 -3.55661e-21)
(0.189433 -0.0572633 0)
(0.101036 -0.0462986 -3.31621e-21)
(0.200479 -0.0211048 3.02415e-21)
(0.06148 -0.00978583 4.60938e-21)
(-0.0972996 0.016159 1.65294e-21)
(-0.141104 0.0248599 0)
(-0.168205 0.0343229 0)
(-0.213572 0.0401 3.28347e-21)
(-0.245106 0.0588256 0)
(-0.274278 0.0598736 8.26254e-21)
(-0.294477 0.0759539 -7.06135e-21)
(-0.108289 0.0542443 0)
(-0.132045 0.0689946 -5.67661e-21)
(-0.222725 0.0873789 1.1563e-20)
(-0.195145 0.0400294 0)
(-0.292494 0.0752629 -7.47364e-21)
(-0.306153 0.0691112 -3.98628e-21)
(-0.0857208 -0.315024 0)
(-0.0705701 -0.248551 7.72747e-21)
(-0.0719326 -0.243723 0)
(-0.0639435 -0.323021 -5.27585e-22)
(-0.0899757 -0.326002 4.14361e-22)
(-0.102196 -0.24239 -7.93626e-21)
(-0.0603807 -0.188486 -7.29077e-21)
(-0.0904045 -0.16262 9.69501e-21)
(-0.0372274 -0.116143 2.98971e-21)
(-0.103694 -0.083455 -3.91719e-21)
(-0.0500894 -0.052785 0)
(-0.0772715 -0.0178867 -3.18621e-21)
(-0.17216 0.0108739 0)
(-0.123466 0.0131817 0)
(-0.16777 0.0198078 -1.28104e-21)
(-0.198082 0.0256448 -5.01989e-21)
(-0.2325 0.0320084 4.30498e-21)
(-0.261223 0.042684 -1.53214e-21)
(-0.279678 0.0448447 -1.96664e-21)
(-0.307482 0.0567662 6.22756e-21)
(-0.277592 0.0468461 -6.94653e-21)
(-0.30104 0.0619142 8.46957e-21)
(-0.264026 0.0155026 0)
(-0.298736 0.0397247 -1.19024e-21)
(-0.321135 0.0618451 0)
(-0.314326 0.0565336 0)
(-0.0467892 -0.174258 -1.23694e-20)
(-0.0894408 -0.248956 4.26681e-21)
(-0.10989 -0.258947 5.155e-21)
(-0.121771 -0.288603 -7.10463e-22)
(-0.137753 -0.259268 6.55443e-22)
(-0.172257 -0.209988 -7.46636e-21)
(-0.174999 -0.170554 0)
(-0.195646 -0.112939 -9.32951e-21)
(-0.281245 0.0178686 -4.39172e-21)
(-0.237533 -0.0819509 6.78743e-21)
(-0.273983 -0.0184185 2.8013e-21)
(-0.135484 0.0115848 4.51764e-21)
(-0.294627 0.0530201 2.69738e-21)
(-0.173468 0.0179177 -3.22756e-21)
(-0.198916 0.0232739 -2.7944e-21)
(-0.226267 0.0312761 -6.0521e-21)
(-0.261475 0.0397219 1.35425e-21)
(-0.27086 0.0439223 -3.43188e-21)
(-0.294237 0.0459874 -2.69922e-21)
(-0.318198 0.060732 6.72787e-22)
(-0.313194 0.0515152 1.23266e-21)
(-0.274789 0.0591243 4.81694e-21)
(-0.291107 0.0568136 1.99655e-21)
(-0.301909 0.0644855 -1.27923e-21)
(-0.294072 0.0611131 -1.91859e-21)
(-0.24236 0.0645543 -6.67712e-21)
(-0.0389525 -0.10505 0)
(-0.0624995 -0.165944 8.27746e-21)
(-0.183022 0.0660902 0)
(-0.221399 0.0555312 4.37741e-21)
(-0.120736 0.0615074 8.47724e-21)
(-0.14653 0.0581402 -5.59773e-21)
(-0.0860415 -0.181396 0)
(-0.125153 -0.221259 -4.90038e-21)
(-0.162286 -0.198609 1.5002e-20)
(-0.21938 0.0285908 -5.8372e-21)
(-0.245482 0.00872831 4.62041e-21)
(-0.179565 -0.157265 -1.06991e-20)
(-0.230479 -0.0769249 1.13789e-22)
(-0.222357 -0.0475161 -9.42587e-21)
(-0.135723 0.0117668 0)
(-0.2662 0.0527736 0)
(-0.245133 0.039579 2.59675e-22)
(-0.250714 0.0463229 -3.54422e-22)
(-0.169186 0.0200921 -5.02261e-21)
(-0.19725 0.0263225 5.34155e-21)
(-0.215667 0.0314287 4.63413e-21)
(-0.284788 0.0701316 1.83084e-21)
(-0.276822 0.0697112 -4.1691e-22)
(-0.247336 0.0773918 3.63318e-21)
(-0.22818 0.0764418 1.32583e-21)
(-0.25918 0.0572594 -5.4758e-21)
(-0.264784 0.0718652 1.99923e-23)
(-0.271551 0.0638368 4.67553e-21)
(-0.201364 0.0820759 2.29948e-21)
(-0.176456 0.0803907 -7.50233e-21)
(-0.119818 0.0731618 2.88288e-21)
(-0.14502 0.0805868 2.3815e-21)
(-0.0956762 0.0708839 -3.36801e-21)
(-0.0575425 0.0524183 0)
(-0.0759119 0.0589512 2.79829e-21)
(-0.0918361 0.0547249 -2.40032e-22)
(-0.0833936 0.0470141 0)
(-0.0249252 -0.0546976 -4.1963e-21)
(-0.0490661 -0.0949784 4.10559e-21)
(-0.059494 -0.10255 2.88712e-21)
(-0.0951098 -0.138248 0)
(-0.107666 0.0317353 1.0204e-20)
(-0.141094 0.0342084 0)
(-0.168851 0.0188741 5.66235e-21)
(-0.121288 -0.116456 1.30634e-22)
(-0.1526 -0.0268175 1.53358e-21)
(-0.151417 -0.124287 -4.21941e-21)
(-0.179946 -0.0561199 8.46576e-21)
(-0.0139464 -0.0251545 -4.96206e-22)
(-0.0255628 -0.0430645 0)
(-0.125984 0.0107771 0)
(-0.0850455 0.0038378 -5.14569e-22)
(-0.102841 0.00502501 5.18715e-22)
(-0.223765 0.0441579 -3.00825e-21)
(-0.234438 0.0542389 2.64533e-21)
(-0.150051 0.0165972 0)
(-0.184875 0.0256232 -2.45623e-21)
(-0.201107 0.0351404 2.95879e-21)
(-0.199158 0.0863949 1.24116e-21)
(-0.239231 0.0767054 -2.01772e-21)
(-0.232713 0.0817029 -2.56044e-21)
(-0.218686 0.060195 -3.40906e-21)
(-0.219025 0.0716142 6.76008e-22)
(-0.176298 0.0842666 0)
(-0.148046 0.0843516 0)
(-0.134546 0.0827768 0)
(-0.107046 0.0793477 -2.97555e-21)
(-0.0874586 0.0727549 -1.67579e-21)
(-0.067415 0.06613 3.98952e-21)
(-0.050506 0.054217 0)
(-0.00780458 0.0145224 0)
(-0.00499794 0.00960695 -6.67862e-22)
(-0.0142587 0.0259699 3.59738e-21)
(-0.0228514 0.0350351 -3.15353e-21)
(-0.0363306 0.0471235 0)
(-0.0258563 0.0328909 -5.85674e-21)
(-0.039357 0.0402932 3.75351e-23)
(-0.0107467 0.0154263 0)
(-0.01469 0.0201672 -4.59978e-21)
(-0.00492926 0.00586846 0)
(-0.0416501 0.0354548 1.35438e-23)
(-0.0597201 0.0401022 2.0567e-23)
(-0.0588983 0.0304203 3.55588e-21)
(-0.0924404 0.0259388 -4.32544e-21)
(-0.0363655 -0.0479219 8.81293e-21)
(-0.0604366 -0.0669501 -1.85482e-20)
(-0.0881765 -0.0671839 3.95112e-21)
(-0.0877349 0.0090108 -2.28003e-21)
(-0.0965638 -0.0379475 8.37687e-21)
(-0.117135 -0.022601 -5.88532e-21)
(-0.00689556 -0.00708382 0)
(-0.0130738 -0.0154531 0)
(-0.0161873 -0.016757 -3.64656e-21)
(-0.0323056 -0.0283144 -5.33374e-21)
(-0.0042127 0.00680269 5.65141e-22)
(-0.117781 0.0104078 1.25364e-21)
(-0.0697667 0.00082278 0)
(-0.0874831 0.00282162 -1.09684e-21)
(-0.146668 0.0292853 1.49053e-21)
(-0.173518 0.0375197 -4.45796e-21)
(-0.189289 0.0550266 -8.1049e-23)
(-0.162276 0.0678243 4.04896e-21)
(-0.181521 0.0760945 -4.75267e-21)
(-0.169019 0.0814734 3.23334e-21)
(-0.0990449 0.0791115 -3.93068e-21)
(-0.128446 0.0781264 6.07469e-23)
(-0.125881 0.0828057 1.11157e-21)
(-0.0371186 0.0531207 4.04597e-21)
(-0.0566022 0.0645054 -4.41982e-23)
(-0.0785953 0.0717821 1.95871e-21)
(-0.0111551 0.0273465 1.76758e-21)
(-0.0273465 0.0448725 -2.14109e-21)
(-0.00630813 0.0177507 -1.58874e-21)
(-0.0165601 0.0185291 5.23514e-21)
(-0.0261927 0.0239772 0)
(-0.00503665 0.00498229 4.11257e-21)
(-0.00739251 0.00750341 -7.26825e-21)
(-0.00222548 0.00033475 0)
(-0.00222199 0.000328613 0)
(-0.0045018 -0.00215651 -1.1554e-21)
(-0.0267656 0.0194153 5.24225e-21)
(-0.0413146 0.0217503 -1.58112e-23)
(-0.0412431 0.0142398 -1.07819e-20)
(-0.063217 0.00757163 1.08839e-20)
(-0.0389365 -0.017925 3.80772e-21)
(-0.054299 -0.0177937 -3.09013e-21)
(-0.0479066 -0.00261339 -3.80808e-21)
(-0.00654232 -0.00306694 7.17178e-22)
(-0.0130878 -0.00712488 2.0332e-21)
(-0.0214302 -0.00661605 1.4088e-21)
(-0.00506921 0.0134451 -3.05309e-21)
(-0.0292583 0.0495436 0)
(-0.0616274 0.0639401 0)
(-0.093133 0.0360155 3.947e-21)
(-0.108811 0.055358 -2.76842e-21)
(-0.101046 0.0671813 0)
(-0.0222576 0.00259912 3.06227e-23)
(-0.0626183 0.0148086 0)
(-0.0100222 0.0309462 -1.0365e-22)
(-0.000828595 0.00175724 -6.08664e-22)
(-0.00021728 0.00204435 2.99375e-21)
(-0.00928744 0.00686947 7.49967e-21)
(-0.0146985 0.0105663 0)
(-0.00154028 -0.000790186 -3.39868e-21)
(-0.00344189 0.000628048 -1.07877e-20)
(-0.000488493 -0.00229838 5.95598e-21)
(-0.00139545 0.00146956 4.21849e-22)
(-0.00537547 -0.000678905 0)
(-0.0158868 0.00597395 0)
(-0.0257557 0.00784088 0)
(-0.028251 0.000493501 0)
(-0.00744707 -0.000586747 4.81292e-21)
(-0.0162809 -0.002918 -4.1125e-21)
(-0.01856 0.000575021 0)
(-0.00132061 0.00993472 0)
(-0.000410429 0.00166149 2.72249e-21)
(0.000578958 0.0016649 -6.82891e-21)
(0.000650402 0.00195027 1.18868e-20)
(0.00063383 0.00177754 -7.18394e-21)
(0.000873155 0.00122402 -2.33876e-21)
(0.000467878 0.000634374 0)
(-0.00313857 -8.58502e-05 3.5187e-21)
(-0.0066873 0.00129407 0)
(0.000156685 -0.00292967 0)
(-0.000222854 -0.00243446 0)
(0.000225351 -0.00301788 -1.29475e-21)
(-0.00077827 0.00109563 2.23581e-21)
(-0.00308577 0.00083206 0)
(-0.00238634 0.000434606 6.76847e-21)
(-0.00462813 0.000684689 1.79023e-21)
(-0.00598011 0.00148072 -6.75074e-21)
(0.00115768 0.00145975 0)
(0.000770995 0.00129873 5.27911e-21)
(0.00123869 0.00106798 8.56212e-21)
(0.00148682 0.00124726 -9.71159e-21)
(0.000672363 0.000344854 -1.74314e-22)
(0.00121695 0.000654303 7.23276e-21)
(0.000781066 -0.00231423 1.45298e-21)
(0.000203732 -0.00132166 -1.08955e-21)
(0.000749284 -0.00229272 -8.36617e-21)
(0.000952849 -0.00268142 1.14317e-20)
(0.00119692 -0.00253667 0)
(0.0013315 0.00095138 -5.35798e-21)
(0.000531555 0.000831687 -7.84281e-21)
(0.00171639 -4.58017e-06 1.16279e-20)
(0.00158461 -0.00101786 0)
(0.00107107 -0.00147592 0)
(0.000582762 -0.0008187 4.46024e-21)
(0.00196665 0.000840015 3.35732e-21)
(0.00209328 0.000793415 -5.95493e-21)
(0.00144155 0.000457207 -1.30425e-22)
(0.00190575 0.000596249 1.78836e-24)
(0.00157759 -0.00134114 0)
(0.00194666 -0.00162906 1.95049e-21)
(0.0021989 -0.00110116 -1.68502e-21)
(0.0025521 0.000271319 -4.16153e-24)
(0.0024561 -0.000549556 7.99857e-22)
(0.00247112 -0.000119766 6.32238e-21)
(0.000881201 -0.000390886 -5.91223e-21)
(0.00160259 -0.000759707 0)
(0.00201556 0.000250567 -8.83109e-21)
(0.00244532 0.000199014 4.21037e-21)
(0.0022015 -3.65209e-05 4.48367e-21)
(0.00189418 -0.000436596 0)
(0.00230942 -0.000457347 -4.91226e-21)
)
;

boundaryField
{
    movingWall
    {
        type            fixedValue;
        value           uniform (1 0 0);
    }
    fixedWalls
    {
        type            noSlip;
    }
    frontAndBack
    {
        type            empty;
    }
    defaultFaces
    {
        type            empty;
    }
}


// ************************************************************************* //
