/*--------------------------------*- C++ -*----------------------------------*\
  =========                 |
  \\      /  F ield         | OpenFOAM: The Open Source CFD Toolbox
   \\    /   O peration     | Website:  https://openfoam.org
    \\  /    A nd           | Version:  8
     \\/     M anipulation  |
\*---------------------------------------------------------------------------*/
FoamFile
{
    version     2.0;
    format      ascii;
    class       volVectorField;
    location    "0.066";
    object      U;
}
// * * * * * * * * * * * * * * * * * * * * * * * * * * * * * * * * * * * * * //

dimensions      [0 1 -1 0 0 0 0];

internalField   nonuniform List<vector> 
424
(
(-0.00293614 -0.000189948 6.80814e-26)
(-0.0146513 0.000961551 0)
(-0.0131018 0.00276774 2.04586e-23)
(0.000179569 0.00315098 -1.16699e-24)
(-0.0473525 0.0051472 -2.47645e-23)
(-0.0230445 0.000844514 -3.3878e-23)
(-0.0029943 0.0138297 3.23434e-24)
(-0.000995332 0.0155052 -7.93535e-25)
(-0.0687345 0.00259463 -3.61309e-23)
(-0.0257648 0.0002968 3.10976e-23)
(-0.0703223 0.00228274 9.63759e-23)
(-0.0240377 0.000465953 0)
(-0.00519751 0.0503228 1.16772e-24)
(-0.000963619 0.0244874 0)
(-0.0744386 0.000564808 3.30259e-23)
(-0.0255808 -4.07933e-05 1.75109e-23)
(-0.0590481 0.000689189 0)
(-0.0196479 7.80987e-05 0)
(-0.000341379 0.0271128 0)
(-0.00267683 0.0732607 -2.78441e-23)
(-0.0734011 4.811e-05 3.49544e-23)
(-0.0258203 -0.00033861 -1.87545e-23)
(-0.0573189 0.000236498 0)
(-0.0196371 5.60103e-05 0)
(1.31924e-05 0.0260431 1.30697e-23)
(-0.000172637 0.0781311 2.5127e-23)
(-0.00233356 0.06845 -3.74643e-23)
(-0.000418194 0.0233099 -3.89036e-23)
(-0.0750824 -0.000327206 5.8874e-23)
(-0.0232405 -0.000847982 0)
(-0.0150329 -0.000969389 -1.31698e-22)
(-0.00303878 0.00021568 0)
(-0.0530509 -1.92057e-05 -1.05688e-22)
(-0.0180548 3.82499e-05 9.88296e-23)
(-0.0222842 0.0479302 6.83823e-23)
(0.000239868 0.0267996 0)
(0.000145856 0.0295873 -2.27069e-22)
(0.00335077 0.0631447 2.33922e-22)
(8.24648e-05 0.0746622 2.79498e-23)
(-0.000419349 0.0601129 3.9227e-24)
(-6.77858e-06 0.0199981 -3.85036e-24)
(-0.0699931 -0.0025685 -1.05445e-22)
(-0.04899 -0.00549386 1.33517e-22)
(-0.0141024 -0.00310142 0)
(0.000224025 -0.0033641 -2.95519e-22)
(-0.0494729 -0.000265427 3.46999e-22)
(-0.0162222 -3.37412e-05 0)
(-0.106049 0.152677 -1.89065e-22)
(0.809203 0.0278417 -5.01858e-23)
(-0.00069618 0.0781743 -1.62203e-23)
(-0.00573095 0.0866545 0)
(-0.00507372 0.166847 -3.61595e-24)
(-0.000244489 0.0579428 0)
(-4.43895e-05 0.0199173 0)
(-0.00400034 -0.0151975 5.94383e-23)
(-0.0012564 -0.0170684 2.58428e-22)
(-0.0531143 -0.000629281 0)
(-0.0174752 -0.000155189 0)
(0.405638 0.118729 1.41483e-22)
(0.861376 -0.0037885 -1.19168e-23)
(0.000144673 0.0544619 -9.27311e-23)
(-8.89633e-06 0.0187224 8.7899e-23)
(-0.00671209 -0.0544247 0)
(-0.00104166 -0.0268086 0)
(0.551436 0.0129206 1.56437e-22)
(0.882729 -0.00213943 0)
(0.000408074 0.0516077 -7.9751e-23)
(9.87626e-05 0.0174747 7.33898e-23)
(-0.000335112 -0.0292955 6.02645e-23)
(-0.00298271 -0.0790254 -1.8595e-23)
(0.880717 -0.00128592 -1.38274e-23)
(0.626373 0.00206126 -1.15917e-22)
(-0.00228607 0.0558774 0)
(-0.00020469 0.0209844 0)
(7.71745e-05 -0.0288857 4.72763e-23)
(-0.000366271 -0.0834828 1.91047e-23)
(-0.00189928 -0.0658985 -3.97207e-22)
(-0.000343511 -0.0224358 0)
(0.879095 -0.000317035 1.3063e-23)
(0.637001 -0.000768007 -4.91221e-23)
(0.826678 -0.0267488 0)
(0.00033816 -0.0288239 -9.09958e-23)
(0.881772 0.0014074 0)
(0.88671 0.00204226 0)
(0.865839 0.00377292 0)
(-0.019522 -0.0491255 0)
(0.00355483 -0.0683074 -4.80775e-22)
(0.000174767 -0.0308324 5.95669e-22)
(0.000290613 -0.0821728 4.36575e-23)
(-0.000559807 -0.0577245 0)
(-3.69044e-05 -0.019244 0)
(0.639153 -0.000725833 -2.08442e-23)
(-0.104739 0.00186892 -4.20518e-23)
(0.447584 -0.115196 9.64675e-22)
(-0.000517979 -0.0839544 -8.91267e-23)
(0.641637 0.00131799 -1.2372e-22)
(0.643161 -0.00139835 2.5737e-22)
(0.570043 -0.0108388 -1.24184e-21)
(-0.108401 -0.154018 -1.80905e-22)
(-0.00644858 -0.179395 7.01048e-22)
(-0.00653535 -0.0905084 -5.69199e-22)
(5.53239e-05 -0.0573267 -3.09733e-23)
(3.52064e-05 -0.0196921 3.00378e-23)
(-0.0932081 5.79391e-05 0)
(-0.0405084 -4.34374e-05 -4.09737e-23)
(0.000387587 -0.0594237 -1.38401e-22)
(6.08936e-05 -0.02049 -1.31588e-22)
(-0.0956135 -0.000318158 2.40231e-23)
(-0.0338647 6.27258e-06 0)
(-6.39933e-05 -0.0579777 9.95369e-23)
(8.55344e-05 -0.0199453 -9.489e-23)
(-0.0893479 -0.000141653 -2.48827e-22)
(-0.035184 -0.000111245 -2.27466e-23)
(-0.00299851 -0.0605808 0)
(-0.000220455 -0.0234971 0)
(-0.0824095 0.000297743 1.35985e-22)
(-0.032683 -6.71763e-05 0)
(-0.0935501 -0.00161884 0)
(-0.0294523 -9.4616e-06 1.2164e-22)
(-0.0350908 -0.000114687 0)
(-0.0797275 0.0171029 2.51288e-24)
(-0.0236549 0.0118474 0)
(-0.063677 0.0352345 0)
(-0.012154 0.0248772 -1.84913e-24)
(-0.129968 0.107076 2.70457e-23)
(-0.157657 0.0741183 4.77121e-22)
(-0.0864141 0.136099 3.60184e-23)
(-0.107471 0.116583 -1.33046e-23)
(-0.154479 0.062507 -8.02882e-22)
(-0.159251 0.037311 -2.63913e-23)
(-0.136492 0.0285372 -7.20585e-22)
(-0.122894 0.0288292 -1.9255e-22)
(-0.146437 0.0477366 -6.42744e-22)
(-0.166182 0.0511747 8.39082e-22)
(-0.173053 0.0243189 -6.00128e-22)
(-0.180479 0.0268206 1.08106e-22)
(-0.112008 0.00669826 1.81301e-22)
(-0.165201 0.00739634 1.24482e-21)
(-0.109426 0.00549282 2.62638e-22)
(-0.136138 0.00295621 3.40121e-22)
(-0.0367928 0.064503 2.98967e-23)
(-0.10369 0.113229 0)
(-0.0718197 0.0680828 -2.47476e-23)
(-0.101896 0.0915887 0)
(-0.0735647 0.138987 5.3004e-23)
(-0.0750815 0.148138 -1.36496e-22)
(-0.0193353 0.0863815 -2.97108e-25)
(-0.0501158 0.165071 2.19498e-22)
(-0.0697553 0.133912 -4.7846e-23)
(-0.047237 0.15752 2.86959e-22)
(-0.0615874 0.103855 -5.76634e-23)
(-0.097519 0.0922537 -2.77343e-23)
(-0.108759 0.0662095 0)
(-0.0950846 0.0359788 1.2242e-22)
(-0.0232876 0.00244731 -2.99274e-22)
(-0.0654496 0.0141514 3.45274e-22)
(-0.16068 0.00870804 0)
(-0.179697 0.0090427 0)
(-0.188151 0.00221187 -8.63621e-22)
(-0.124776 0.000722821 -1.54643e-21)
(-0.181804 0.00212991 2.80045e-21)
(-0.102242 0.00153795 7.08778e-22)
(-0.14451 -0.000259779 7.39596e-22)
(-0.0349202 0.131597 -2.11323e-23)
(-0.0443182 0.153543 2.05846e-23)
(-0.0339283 0.178048 -2.3469e-22)
(-0.00640112 0.118408 7.74674e-22)
(-0.0204733 0.182817 1.15942e-22)
(-0.026037 0.150751 4.82133e-23)
(-0.0147841 0.168118 -3.00198e-22)
(-0.0335757 0.0890435 1.67361e-22)
(-0.0206272 0.131569 -1.1726e-21)
(-0.0144266 0.064226 0)
(-0.00246971 0.0228891 0)
(-0.170567 -0.000968465 8.75411e-22)
(-0.187695 -0.000297616 -2.61179e-21)
(-0.127494 0.000711295 -9.19976e-22)
(-0.178971 0.00011799 2.91443e-21)
(-0.100091 -4.62356e-05 -1.15725e-21)
(-0.145368 -0.000447472 1.43859e-21)
(-0.00533156 0.164857 -6.92799e-22)
(-0.00649959 0.183308 5.23062e-22)
(0.00121421 0.128614 0)
(-0.00490249 0.160068 0)
(-0.00167916 0.187751 -1.05472e-21)
(-0.00396835 0.103312 8.01917e-22)
(-0.000375949 0.133319 0)
(-0.170369 0.00217797 8.74403e-22)
(-0.185656 0.00138078 1.97119e-22)
(-0.131544 0.000716714 1.261e-21)
(-0.178095 -0.00155619 -1.91413e-21)
(-0.183741 -0.003321 -2.01379e-21)
(-0.0963126 -0.0006868 -2.2691e-21)
(-0.136432 -0.000602654 9.8481e-22)
(0.00381269 0.168845 7.66845e-22)
(0.000864413 0.122811 -8.12009e-22)
(-0.00031292 0.181897 2.5593e-21)
(0.00247983 0.18793 -1.97769e-21)
(-0.000652059 0.105066 0)
(0.000628228 0.145947 0)
(-0.162253 -0.00625024 -1.4507e-21)
(-0.181814 -0.00877877 0)
(-0.180348 -0.0274038 1.76531e-21)
(-0.114258 -0.00652843 1.05928e-21)
(-0.170269 -0.0355149 -1.9664e-21)
(-0.171144 -0.032844 -3.24544e-21)
(-0.154722 -0.00740692 1.9586e-21)
(-0.161112 -0.024193 1.79042e-21)
(-0.0954432 -0.000730671 -2.94384e-22)
(-0.122668 0.000427504 0)
(-0.000571103 0.168863 -4.27421e-22)
(-0.00393653 0.132688 0)
(0.00113345 0.180563 0)
(-0.000381154 0.186285 3.26985e-22)
(-6.53949e-05 0.0990978 0)
(0.00167032 0.144379 0)
(-0.148555 -0.0653369 0)
(-0.161653 -0.0580354 -2.16169e-21)
(-0.162003 -0.0621478 2.91989e-21)
(-0.134399 -0.0871515 0)
(-0.0786401 -0.0163415 0)
(-0.127561 -0.0277457 -1.22211e-21)
(-0.146679 -0.0352247 -2.28637e-21)
(-0.134193 -0.069143 2.8083e-21)
(-0.146136 -0.0820263 -1.47929e-22)
(-0.0647412 -0.0339395 -7.03437e-22)
(-0.0248701 -0.0119628 0)
(-0.0137934 -0.0257305 2.1484e-21)
(-0.136462 -0.033421 7.37918e-22)
(-0.140747 -0.0566597 -1.83379e-21)
(-0.0868038 -0.00147796 -1.29961e-21)
(-0.118174 -0.0266894 1.85713e-21)
(-0.117372 -0.0719238 8.61228e-22)
(-0.121005 -0.0882614 0)
(-0.104336 -0.102063 1.57276e-21)
(-0.0302065 0.234866 3.19097e-24)
(-0.128206 0.299475 -2.98934e-21)
(-0.141198 0.223799 3.13432e-21)
(0.118558 0.186749 -2.51994e-21)
(-0.0154483 0.171939 1.44027e-21)
(-0.0177913 0.139168 -1.74392e-21)
(-0.0481479 0.207902 -8.93424e-22)
(-0.0168487 0.183927 -3.07494e-21)
(0.000772211 0.17679 -7.87758e-22)
(-0.00789494 0.181153 3.18219e-21)
(0.00109407 0.0941198 0)
(0.00223918 0.13432 2.89814e-22)
(-0.0626438 0.199761 4.23154e-21)
(-0.0997134 0.192636 -1.31936e-21)
(-0.107513 -0.119142 4.15215e-21)
(-0.128706 -0.104837 2.47839e-21)
(-0.125946 -0.106701 -3.33254e-21)
(-0.0773369 -0.0621124 5.33917e-22)
(-0.0964909 -0.120785 0)
(-0.102255 -0.0866728 2.48065e-22)
(-0.0382305 -0.0629135 -3.00289e-21)
(-0.0847142 -0.141325 -5.84349e-21)
(-0.022687 -0.0888539 0)
(-0.0698178 -0.142161 2.05126e-21)
(-0.0496974 -0.159875 0)
(-0.0788878 -0.0274544 3.18105e-21)
(-0.0957359 -0.0620422 0)
(-0.0602262 -0.106024 -4.67064e-21)
(-0.0861501 -0.0946091 1.13909e-21)
(-0.0172811 -0.00145206 1.35887e-21)
(-0.0507173 -0.00948849 -5.47205e-21)
(-0.105474 0.238427 -5.34551e-22)
(-0.127772 0.202604 0)
(0.00996772 0.194909 1.96852e-21)
(-0.135434 0.109095 -1.29744e-21)
(0.264742 0.057368 9.57984e-22)
(-0.0273383 0.180233 2.0169e-21)
(-0.0485799 0.178451 -2.27141e-21)
(-0.00850215 0.150342 -1.66484e-21)
(-0.0187028 0.153289 2.87488e-21)
(0.000855166 0.0913647 1.34303e-21)
(-0.00632768 0.118248 -8.88804e-22)
(-0.155139 0.0189366 0)
(-0.108128 0.126064 -1.91579e-21)
(-0.139498 0.0884215 1.08994e-22)
(-0.146376 0.0485627 3.14565e-21)
(-0.0530466 0.137952 -1.22836e-21)
(-0.0850158 0.113881 1.19672e-21)
(-0.0634063 -0.147584 2.24965e-22)
(-0.0629117 -0.162581 5.0555e-22)
(-0.0471729 -0.172962 0)
(-0.0377261 -0.127865 -2.84041e-22)
(-0.00865031 -0.129636 1.90401e-23)
(-0.0279921 -0.178652 -3.58783e-21)
(-0.0307171 -0.154778 1.83876e-21)
(-0.0212028 -0.16753 -2.03165e-21)
(-0.0332059 -0.0925998 3.19133e-21)
(-0.0244233 -0.132062 -2.66099e-21)
(-0.0126074 -0.0609801 0)
(-0.0022021 -0.0213953 0)
(-0.0530384 0.0573289 -4.54549e-22)
(-0.11385 0.0269348 1.63243e-21)
(0.105238 0.0607355 -6.68009e-22)
(0.375433 0.0176539 1.67355e-21)
(-0.123029 0.0162635 0)
(-0.172592 0.0106465 0)
(-0.0163152 0.119141 -2.08483e-21)
(-0.0331353 0.114451 0)
(-0.163606 -0.00422896 0)
(-0.160861 0.00215643 0)
(-0.00694401 0.0859396 0)
(-0.0061571 0.0972014 -9.49261e-22)
(-0.123098 0.00538708 0)
(-0.12149 0.0338151 -3.18305e-21)
(-0.0434893 0.0642261 0)
(-0.0821273 0.0683735 0)
(-0.096586 0.040654 2.69349e-21)
(-0.150187 -0.0106037 5.67794e-22)
(-0.0119622 -0.182382 2.51299e-21)
(-0.0113691 -0.167608 0)
(0.000252536 -0.135168 -4.01938e-23)
(-0.00728699 -0.159283 0)
(-0.00351138 -0.186125 0)
(-0.00453389 -0.102095 -3.52122e-21)
(-0.00281862 -0.132135 3.21293e-21)
(-0.0441368 0.0167193 0)
(0.124818 0.0123438 -1.38809e-21)
(0.37568 0.00255083 0)
(-0.182741 0.00432315 -4.68451e-22)
(-0.153131 0.00878667 1.18205e-23)
(-0.142653 0.00537135 -2.50516e-22)
(-0.1726 0.00599816 1.30656e-22)
(-0.00425918 0.0314601 5.4859e-21)
(-0.0320789 0.0259266 -1.03255e-21)
(-0.0693708 0.0123247 -2.11792e-21)
(-0.0823793 -0.0142298 0)
(-0.0825991 -0.00359765 0)
(0.000298088 0.00911683 1.72036e-21)
(-2.34283e-05 0.0229882 -6.50314e-21)
(-0.063501 -0.00552363 0)
(0.00202315 -0.175042 -5.44288e-22)
(0.000380867 -0.134958 3.98484e-23)
(-0.00164381 -0.179622 -4.63202e-21)
(0.00125182 -0.187512 4.30826e-21)
(-0.00146786 -0.0997845 0)
(0.000229459 -0.143146 -5.35958e-22)
(0.0990823 -0.00268333 0)
(0.363305 -0.00154233 0)
(-0.166809 -0.00193039 4.27479e-22)
(-0.0928061 -0.00224082 -3.64894e-22)
(-0.1484 0.000225626 3.31495e-22)
(-0.182015 0.00674319 -5.56583e-22)
(-0.0244868 -0.000849132 0)
(0.131223 -0.186401 -5.76533e-21)
(-0.150137 -0.22696 9.82748e-21)
(-0.000619128 -0.172993 1.67242e-22)
(-0.00342852 -0.137466 0)
(0.00095499 -0.179209 3.94843e-21)
(-0.000664052 -0.186333 -2.87809e-21)
(0.000625337 -0.0970299 0)
(0.00241483 -0.148314 -1.02843e-21)
(0.0909714 -0.000121799 -3.8459e-23)
(0.357834 -0.00326458 -2.0955e-21)
(-0.189032 -0.00314941 -2.14091e-21)
(-0.101905 -0.000178138 -6.25795e-22)
(-0.151645 0.00168135 5.32865e-22)
(-0.189767 -0.00175636 0)
(0.267637 -0.0533245 -6.96173e-21)
(0.0263738 -0.166608 -6.40573e-21)
(-0.015011 -0.173307 0)
(-0.0192397 -0.143799 0)
(0.131357 -0.00836354 -3.06327e-21)
(0.383158 -0.0157354 2.61087e-21)
(0.12893 -0.059422 1.15831e-20)
(-0.0540556 -0.212802 0)
(-0.112199 -0.219807 9.19458e-21)
(-0.0350496 -0.250744 1.60224e-21)
(-0.147578 -0.306092 -2.59642e-21)
(-0.0665426 -0.195527 -1.80281e-23)
(-0.015381 -0.183513 -3.83789e-21)
(0.000210845 -0.178006 1.65009e-21)
(-0.00636368 -0.180805 6.07316e-21)
(0.00117436 -0.106708 -3.64512e-21)
(0.000157426 -0.145245 2.36683e-21)
(-0.0479261 -0.0138278 2.45577e-21)
(-0.169389 0.00266192 3.73793e-21)
(-0.16482 -0.00565779 -3.37345e-21)
(-0.143889 7.09758e-05 2.48789e-22)
(-0.174282 -0.000250784 0)
(-0.0616605 -0.0658524 -3.8454e-21)
(-0.147689 -0.173652 -2.63116e-21)
(-0.0446748 -0.175854 -6.38867e-21)
(-0.0270802 -0.177144 7.55008e-22)
(-0.12637 -0.0150675 0)
(-0.114885 -0.0286229 -9.97053e-22)
(-0.130303 -0.173503 -6.7451e-21)
(-0.0889227 -0.178277 8.70801e-21)
(-0.0734779 -0.13108 6.39504e-21)
(-0.0510693 -0.140291 0)
(-0.00744763 -0.143658 0)
(-0.0175694 -0.147969 -2.51028e-21)
(-0.0014021 -0.0992715 0)
(-0.00755871 -0.12187 0)
(-0.186501 0.000122525 2.82186e-21)
(-0.177047 -0.00531027 -5.44351e-21)
(-0.136611 0.00214883 -2.61902e-22)
(-0.168417 -0.00295496 -1.59654e-21)
(-0.155221 -0.0198166 5.16629e-21)
(-0.147635 -0.0742846 -4.46187e-21)
(-0.0183625 -0.117644 1.505e-21)
(-0.0341614 -0.116466 3.62302e-21)
(-0.173427 0.00442357 4.46159e-21)
(-0.155503 0.00194491 -1.78856e-22)
(-0.0429314 -0.0654182 -8.00968e-21)
(-0.0769122 -0.078628 3.85607e-22)
(-0.109521 -0.0626761 1.41767e-21)
(-0.00735683 -0.0840832 0)
(-0.00803486 -0.0946589 -2.74651e-21)
(-0.137213 -0.00455765 -2.16306e-21)
(-0.157902 0.0080579 1.53812e-21)
(-0.0879558 0.01665 1.42689e-21)
(-0.00658702 -0.0284985 0)
(-0.0340111 -0.0216121 3.56601e-21)
(-0.102342 0.010758 1.60376e-22)
(-0.0931741 -0.00935761 0)
(0.000154779 -0.00962525 0)
(-0.00109577 -0.0231256 0)
(-0.0612015 0.0066521 -3.74765e-21)
(-0.0225745 0.00111862 2.94954e-21)
)
;

boundaryField
{
    movingWall
    {
        type            fixedValue;
        value           uniform (1 0 0);
    }
    fixedWalls
    {
        type            noSlip;
    }
    frontAndBack
    {
        type            empty;
    }
    defaultFaces
    {
        type            empty;
    }
}


// ************************************************************************* //
