/*--------------------------------*- C++ -*----------------------------------*\
  =========                 |
  \\      /  F ield         | OpenFOAM: The Open Source CFD Toolbox
   \\    /   O peration     | Website:  https://openfoam.org
    \\  /    A nd           | Version:  8
     \\/     M anipulation  |
\*---------------------------------------------------------------------------*/
FoamFile
{
    version     2.0;
    format      ascii;
    class       volScalarField;
    location    "7000";
    object      p;
}
// * * * * * * * * * * * * * * * * * * * * * * * * * * * * * * * * * * * * * //

dimensions      [0 2 -2 0 0 0 0];

internalField   nonuniform List<scalar> 
4109
(
-0.00552552
-0.0177849
-0.00879448
-0.0287606
-0.029901
-0.0185344
-0.0287128
-0.0146652
-0.0392309
-0.0397003
-0.0390216
-0.042966
-0.00912953
-0.022896
-0.0317825
-0.0463728
-0.0507346
-0.0467448
-0.045115
-0.0419976
-0.00271949
-0.0324536
-0.0327688
-0.0537982
-0.0546419
-0.0622745
-0.00303792
-0.00825379
-0.00559298
-0.0520822
-0.0456156
-0.0470726
-0.0299935
-0.0869041
-0.0618522
-0.0572736
-0.0622772
-0.0762911
-0.016526
-0.00504056
-0.000179796
-0.0132383
0.000369457
-0.0561587
-0.0518675
0.0902562
-0.0558644
-0.0471472
-0.0550994
-0.076454
-0.0683466
-0.0659163
-0.0717134
-0.0884845
-0.0239577
-0.0109582
-0.00519472
0.01501
-0.00958026
-0.0210136
-0.0678256
0.0650798
-0.061704
-0.056265
-0.0523822
-0.0337321
-0.0585355
-0.0520039
-0.0577885
-0.0537247
-0.105411
-0.0804802
-0.125724
-0.125602
-0.127184
-0.0299472
-0.0327445
-0.0231427
-0.0123227
-0.0206137
-0.0117991
-0.0150723
-0.0160032
-0.0261682
0.0156342
-0.206773
0.123734
-0.236286
-0.00806337
-0.0812732
-0.0713044
-0.0615876
-0.0557927
-0.0534234
-0.0541247
0.0316269
-0.0531047
-0.062071
-0.12548
-0.10888
-0.0979306
-0.139531
-0.137421
-0.145644
-0.151142
-0.0344211
-0.0374105
-0.0398968
-0.0230508
-0.00477403
0.0639407
-0.0153727
-0.0156207
-0.0236577
-0.0302112
-0.578977
0.112121
0.0118659
-0.00551722
-0.309728
-0.120352
0.261541
-0.0883508
-0.0778299
-0.0696287
-0.0563393
-0.0551338
-0.0465261
-0.0744497
-0.0633361
-0.0570168
-0.119955
-0.111701
-0.14866
-0.133545
-0.178179
-0.166572
-0.0415852
-0.047553
-0.0504083
-0.0340115
0.00853198
0.0595773
-0.0129592
-0.0243098
-0.0271579
-0.0345278
0.0879726
0.0820133
-0.215356
-0.100511
-0.137526
0.095442
-0.0863039
-0.0842269
-0.0757806
-0.0602031
-0.0487073
-0.043825
-0.0397011
-0.00610012
-0.0286947
-0.109048
-0.100064
-0.148141
-0.123471
-0.16636
-0.181518
-0.214795
-0.0519692
-0.0580897
-0.0627339
-0.0509005
0.00797059
0.029563
-0.0198844
-0.0237487
-0.025906
-0.0427741
0.0191868
-0.158062
0.0161787
-0.0697272
-0.0838384
-0.021846
-0.0804184
-0.0853636
-0.0724378
-0.0459777
-0.0461498
-0.0282148
-0.0139093
-0.0107738
-0.0931396
-0.100551
-0.138659
-0.112058
-0.157514
-0.185374
-0.21639
-0.256849
-0.0662905
-0.0724682
-0.0756451
-0.0670136
-0.0157355
0.00397926
-0.0100936
-0.0119413
-0.0241695
-0.0567781
-0.0928417
-0.103661
-0.0847214
-0.0154738
-0.0943681
-0.0462703
-0.0769217
-0.0783192
-0.0945976
-0.0488279
0.09602
0.0667256
-0.0808829
-0.0860681
-0.127783
-0.096847
-0.147415
-0.178898
-0.215672
-0.256416
-0.302672
-0.0824347
-0.0866325
-0.0872485
-0.0800641
-0.00853435
0.0294157
0.00992404
0.0132237
-0.0989369
-0.0381456
-0.0735761
-0.0638716
-0.0630834
0.0545255
-0.138857
-0.208951
-0.0525898
-0.0851612
-0.0605287
-0.0901936
0.0603828
0.0674156
-0.0634441
-0.065667
-0.111735
-0.0768406
-0.131139
-0.169936
-0.206601
-0.249156
-0.298429
-0.349605
-0.104191
-0.0950445
-0.0917947
-0.116271
0.0209752
0.101307
-0.0172982
-0.113177
-0.0906215
-0.0616259
-0.175217
-0.129489
-0.231251
0.0634239
-0.19712
0.0100962
1.07813
-0.0566714
-0.0104087
-0.33765
-0.0965796
-0.0537586
-0.0292492
-0.0864166
-0.0444886
-0.109014
-0.153134
-0.196182
-0.237442
-0.285898
-0.333435
-0.370394
-0.383056
-0.113518
-0.116786
-0.108166
-0.134048
-0.130461
0.019803
0.100875
-0.0553861
-0.107431
-0.084181
-0.0650662
-0.222338
-0.0284202
-0.0484444
0.402637
0.0500913
1.08401
1.12376
1.13628
1.02867
1.02891
0.970495
-0.661724
-0.249251
-0.148246
-0.112636
0.0145467
-0.0465835
-0.0389298
-0.0807523
-0.132175
-0.178201
-0.371164
-0.226207
-0.272022
-0.322443
-0.394558
-0.400783
-0.411586
-0.386515
-0.136859
-0.136386
-0.153335
-0.148377
-0.125032
-0.0256119
-0.0109122
-0.0909388
-0.103889
0.335377
0.118107
1.01255
-0.105042
1.19988
1.16361
1.16969
1.07779
1.19672
1.2187
-0.314771
-0.362341
-0.329394
0.946715
0.922045
0.9931
0.909697
1.01662
0.109372
0.164561
0.160875
0.0233298
-0.027547
-0.399223
-0.104884
-0.109155
-0.155309
-0.204944
-0.36013
-0.261017
-0.310943
-0.437757
-0.419105
-0.424716
-0.437644
-0.427306
-0.437944
-0.166434
-0.159363
-0.17423
-0.165194
-0.141981
-0.122679
-0.0966739
-0.153455
-0.104098
0.778518
0.616147
1.24484
1.23211
1.15623
1.27709
1.3057
-0.247343
-0.192451
-0.194928
-0.484494
-0.319465
0.827193
0.812194
0.84261
0.942143
1.08289
-0.089337
0.445983
0.43582
0.0322349
-0.0790048
-0.394398
-0.42099
-0.114744
-0.131117
-0.173922
-0.234479
-0.354402
-0.302882
-0.473076
-0.45114
-0.484162
-0.474631
-0.518119
-0.597437
-0.19784
-0.185647
-0.12015
-0.20305
-0.178575
-0.158229
-0.13844
-0.22337
-0.108687
-0.0777746
-0.104795
-0.263084
1.20507
1.32599
1.32307
1.2315
1.37116
1.40722
-0.797849
-0.0184649
0.187988
-0.0813362
-0.0973699
0.629674
0.410334
-0.313634
-0.168695
0.716423
0.842844
0.987769
1.16515
-0.155464
0.0240045
0.132126
-0.0274391
-0.101799
-0.401091
-0.445929
-0.129035
-0.144265
-0.1919
-0.269601
-0.354567
-0.528398
-0.491488
-0.552939
-0.553521
-0.655157
-0.867485
-0.231874
-0.244698
-0.215948
-0.123049
-0.134631
-0.174419
-0.193923
-0.150507
-0.245201
-0.215731
-0.52189
-0.250521
-0.23959
-0.0475263
1.25021
1.23368
1.16552
1.42906
1.42573
1.32478
1.48589
1.53935
-0.632192
-1.19531
0.045346
0.200333
0.0721358
0.402804
0.584343
-0.0991448
0.0132975
0.711806
0.87069
1.07816
1.2783
-0.257097
-0.225594
-0.229266
-0.0576169
-0.0470652
-0.101538
-0.414457
-0.477216
-0.136761
-0.160897
-0.225896
-0.323465
-0.539986
-0.597717
-0.643845
-0.667011
-0.869573
-1.17166
-1.45112
-0.269803
-0.282379
-0.145789
-0.140715
-0.165208
-0.185287
-0.209472
-0.28176
-0.242489
-0.202737
-0.0787344
0.366401
1.32567
1.30235
1.23984
1.07009
1.1619
1.54991
1.5508
1.43842
1.59981
1.63101
-0.393951
-0.997994
-1.71279
0.550736
0.253606
0.353283
0.129775
0.184859
0.731284
0.967525
1.22463
1.41152
0.302616
-0.185627
-0.252172
-0.261227
-0.101219
-0.0214313
-0.0522415
-0.394249
-0.478088
-0.198767
-0.135456
-0.285959
-0.568169
-0.664022
-0.756269
-0.829951
-1.09995
-1.3884
-1.76807
-2.05811
-0.31527
-0.320722
-0.120823
-0.147885
-0.166036
-0.187199
-0.223569
-0.317904
-0.283287
-0.244835
-0.0486643
0.0239506
1.4319
0.967979
1.34168
1.27484
1.14738
1.67648
1.6808
1.56814
1.72251
1.73623
1.70154
-0.110433
-2.17686
-0.695746
-1.36913
0.337178
0.548055
0.369696
0.825038
1.15498
1.38506
1.56226
0.0282231
-0.113715
-0.173903
-0.1415
-0.0751108
0.0937347
0.0345644
-0.481615
-0.371778
-0.264573
-0.182752
-0.601862
-0.736971
-1.0028
-0.873078
-1.3077
-1.9673
-1.62658
-2.26243
-2.50005
-0.359501
-0.356446
-0.355651
-0.13469
-0.155791
-0.195294
-0.246832
-0.32096
-0.282246
-0.087183
-0.0732847
1.55515
1.43178
0.823138
0.95586
1.33538
1.2194
1.04432
1.79482
1.78987
1.70894
1.8459
1.84023
1.81665
0.159232
-2.72913
-0.336217
-1.78279
-0.950586
0.495331
0.6586
0.394385
1.02794
1.33458
1.55793
1.73007
0.0200448
-0.0202808
-0.0982664
-0.101887
0.0295425
0.178461
-0.00219503
-0.511467
-0.358925
-0.268904
-0.680554
-0.836275
-1.16743
-1.00336
-1.55573
-1.96383
-2.32629
-2.73535
-3.09729
-0.400828
-0.393444
-0.395969
-0.364702
-0.142036
-0.163155
-0.218335
-0.28097
-0.32308
-0.0767579
-0.0420848
1.67773
1.58292
1.51711
1.41459
0.634717
0.815355
0.926443
1.29245
1.15713
1.00565
0.422219
1.88456
1.87229
1.79092
1.85988
1.95489
1.91882
1.95469
0.0572552
-2.27515
-0.508157
-1.31447
0.657119
0.862885
0.429417
1.91293
1.22048
1.53127
1.75987
0.0455896
-0.0418539
-0.0819991
-0.0520253
-0.163865
0.0327653
0.0556574
-0.533818
-0.345796
-0.89635
-0.758473
-1.31851
-1.66381
-1.15533
-2.21195
-2.84309
-3.36356
-0.416142
-0.449721
-0.44461
-0.415404
-0.373074
-0.156793
-0.182058
-0.254283
-0.324304
-0.0770589
-0.0296193
-0.396459
-0.339431
1.69518
1.61906
1.50284
1.3796
0.643436
0.811411
0.945416
1.23299
1.08889
0.456401
0.208146
0.00850622
-0.159779
-0.274233
1.91067
1.94413
1.87875
1.80042
2.09573
2.00669
2.03676
2.00007
-0.0355244
-1.73939
-0.792519
1.04828
0.784005
0.642272
0.382561
2.20323
1.9837
1.44659
1.78037
0.0311282
-0.110729
0.0175548
0.498233
-0.351401
-0.049265
-0.725056
-0.493751
-1.56096
-1.15114
-1.9296
-2.78935
-3.50483
-0.46414
-0.490456
-0.474005
-0.433663
-0.378842
-0.177052
-0.220479
-0.303497
-0.0573625
-0.0712613
-0.333854
-0.4403
-0.370952
1.71407
1.60611
1.4779
1.32233
0.66172
0.834433
1.00273
1.15682
0.497109
0.25479
0.334105
-0.330712
0.055352
-0.244258
-0.113768
1.89924
1.96491
1.81811
2.0362
2.25053
2.12711
2.0812
2.38181
-0.247163
-1.14009
1.2813
1.15735
1.02128
0.999861
0.320036
2.07158
2.34372
1.78109
0.21921
0.14805
0.901403
0.566204
-0.251409
-0.391282
-0.87744
-0.565314
-1.67141
-2.56346
-3.49928
-0.519014
-0.532509
-0.505365
-0.451441
-0.368823
-0.22882
-0.280312
-0.0935382
-0.106745
-0.410887
-0.520063
1.83137
1.71878
1.58646
1.42852
1.23834
0.691762
0.884579
1.06014
0.535184
0.378891
0.189405
-0.415983
-0.36714
0.0386641
-0.277912
-0.137248
1.92421
2.00416
1.94485
2.12191
2.55427
2.39938
2.23117
2.53105
1.94686
-0.483679
1.71695
1.59082
1.43889
0.940449
0.234401
2.36233
2.20652
2.52624
0.198213
0.635984
2.16075
0.458318
0.476339
-1.23441
-0.769005
-2.15883
-3.33794
-0.586938
-0.581583
-0.544616
-0.462234
-0.297972
-0.362414
-0.155424
-0.149007
-0.521794
-0.627491
1.83648
1.71227
1.55033
1.33487
1.13111
0.739149
0.935479
0.574022
0.382206
0.187955
-0.503425
-0.441062
0.000277914
-0.334068
-0.182926
2.08376
2.02871
2.28306
2.93894
2.71644
2.73418
2.55358
2.00293
1.88105
1.55942
0.983623
2.284
2.72103
3.03331
0.121137
0.8493
-0.129576
-0.198449
-1.67495
-0.963674
-2.98833
-0.655565
-0.64568
-0.590299
-0.295423
-0.45401
-0.346237
-0.648006
-0.720243
1.69423
1.84752
1.45843
1.20405
0.998546
0.783541
0.603345
0.395234
0.171276
-0.626171
-0.554584
-0.0554799
-0.432072
-0.262075
2.13776
2.23395
2.52649
3.24888
2.98235
2.8335
3.49525
2.04465
2.12945
1.73273
2.66913
3.11736
3.54224
-0.208092
0.0811114
0.121361
-0.19565
-2.39657
-1.35414
-0.746009
-0.717085
-0.486893
-0.603182
-0.620876
-0.76039
-0.842682
1.63033
1.82902
1.3217
1.07382
0.837342
0.638545
0.401959
0.141269
-0.753569
-0.684869
-0.120086
-0.550397
-0.357092
2.25319
2.42312
2.80929
3.5111
3.17327
3.92378
2.02952
2.44924
3.13036
3.71765
4.23682
-32.2645
-0.239629
0.284313
0.336334
-0.404744
-31.5187
-0.852407
-0.764671
-0.888719
-1.00572
-0.709461
-0.911954
-0.993346
1.75142
1.51227
1.19669
0.910336
0.689452
0.412428
0.106092
-0.92402
-0.85338
-0.198235
-0.69944
-0.47477
2.65419
2.34255
3.29013
3.97102
4.5989
2.52075
2.07563
-34.3519
-32.2649
-0.148032
0.149194
0.19339
-29.4857
-31.3935
-31.7483
-0.989043
-1.0399
-1.1724
-1.19743
-0.82489
-1.11752
-1.19037
1.71654
1.41371
1.03314
0.779298
0.429965
0.0516554
-1.1748
-1.09384
-0.311326
-0.638383
-0.905788
3.09205
3.90917
4.73339
2.93843
2.51728
2.07911
-35.3382
-34.4214
-32.2657
-0.504
-28.8947
-31.1341
-33.9284
-30.9593
-1.32355
-1.49496
-1.54121
-1.34405
-1.42986
-1.46545
1.64134
1.24324
0.941313
0.470072
-0.00754362
-1.56696
-1.43706
-0.448928
-0.843003
-1.17651
3.7583
4.71491
2.85151
3.50991
2.52584
2.06904
-36.1754
-35.4851
-34.4553
-32.2498
-35.0409
-27.4367
-28.6531
-30.8815
-34.064
-30.7471
-1.76568
-1.98057
-2.32025
-1.92769
-1.76913
-1.93903
1.51361
1.01731
0.454184
-0.102756
-2.15629
-1.86629
-0.628161
-1.1012
-1.516
4.54753
3.21385
4.2003
2.76769
2.20232
-36.1853
-35.6099
-34.4719
-32.2295
-33.8678
-35.2815
-27.5701
-27.4383
-28.5248
-30.6544
-33.9774
-30.7321
-2.30476
-2.89548
-2.43801
-2.56347
-2.69967
1.60739
1.00506
0.377208
-0.258381
-2.53269
-2.25114
-0.862466
-1.40865
-1.88449
3.72427
3.13594
2.4553
-38.8084
-36.0599
-35.6965
-34.4819
-32.2064
-33.9364
-35.4447
-25.4521
-27.6081
-27.4076
-28.4328
-30.4473
-33.8517
-30.6516
-3.21614
-3.36435
-3.41113
-3.36235
1.74577
1.00957
0.259489
-0.472629
-3.13207
-2.76574
-1.15586
-1.77291
-2.31501
-41.6609
-38.9164
-35.9431
-35.7582
-34.4934
-32.1838
-34.0722
-35.6044
-25.0132
-25.4711
-27.6376
-27.3597
-28.3607
-30.2622
-33.7073
-30.4831
-46.3562
-41.8571
-38.9895
-35.8557
-35.8035
-34.5073
-32.1608
-34.1864
-35.7768
-21.0322
-25.1932
-25.4864
-27.6407
-27.3331
-28.2891
-30.1433
-33.5587
-30.281
-49.0535
-46.2012
-41.9696
-39.0502
-35.7969
-35.839
-34.5237
-34.2726
-35.9661
-25.3542
-20.8344
-25.3255
-25.4858
-27.6249
-27.3225
-28.2125
-33.4391
-94.1988
-48.6177
-46.1769
-42.0498
-39.0798
-35.7585
-35.8618
-34.3229
-36.1408
-20.0997
-26.1354
-20.8432
-25.3895
-25.4844
-27.5999
-27.3285
-33.3857
-30.5452
-103.5
-47.5058
-46.2369
-42.1106
-39.0854
-35.739
-34.3237
-21.6878
-20.2192
-26.96
-20.8724
-25.4138
-25.4851
-27.5748
-27.3354
-44.5258
-30.9088
-112.461
-46.2841
-46.3205
-42.1426
-39.0748
-34.293
-20.946
-21.7546
-20.2886
-27.7462
-20.9072
-25.4157
-25.4918
-27.5653
27.5349
-52.1169
-30.5396
-120.556
-45.0494
-46.3951
-42.1502
-39.0506
-20.8957
-20.9037
-21.8329
-20.36
-28.475
-20.9519
-25.4092
-25.4998
35.0721
30.6568
-60.6029
-29.9493
-127.694
-43.8
-46.4013
-42.1339
-20.475
-20.84
-20.8635
-21.888
-20.4459
-29.1812
-20.9808
-25.4182
47.3711
36.2109
33.8077
-68.484
-29.2349
-134.433
-42.6543
-46.3364
-20.4794
-20.4062
-20.7853
-20.8297
-21.9263
-20.5427
-29.8644
-20.9703
50.0499
48.2398
37.3992
36.1814
-75.6615
-28.3781
-141.488
-41.885
-20.9048
-20.408
-20.3331
-20.7322
-20.8041
-21.9544
-20.6373
-30.2903
49.9719
50.6052
49.1495
38.397
38.2129
-82.6951
-27.6077
-146.792
-20.9508
-20.8467
-20.333
-20.2653
-20.682
-20.7849
-21.9762
-20.706
47.5851
50.5685
51.221
49.8843
39.3484
40.1634
-90.4812
-27.5194
-21.6872
-20.9053
-20.7907
-20.2639
-20.2053
-20.6369
-20.7693
-21.9908
34.7827
48.3176
51.1637
51.7794
50.4775
40.3226
42.1357
-97.0178
-20.0306
-21.7582
-20.8638
-20.736
-20.2029
-20.1535
-20.6018
-20.7578
27.2698
35.8922
49.1833
51.7056
52.2675
50.9725
41.2987
43.6021
-25.3211
-20.1154
-21.8372
-20.8291
-20.6841
-20.1502
-20.1151
-20.5847
-44.2481
30.3242
37.0563
49.8953
52.1829
52.697
51.3573
41.8972
-20.9837
-26.1569
-20.1783
-21.8938
-20.8032
-20.6369
-20.111
-20.0973
-30.3961
-51.9935
33.3986
38.0018
50.4726
52.6041
53.0533
51.58
-24.8723
-20.7771
-26.9936
-20.2457
-21.9341
-20.7839
-20.5999
-20.0929
-94.0442
-30.9937
-60.5065
35.6632
38.8861
50.9446
52.9528
53.2546
-25.3461
-25.0535
-20.7789
-27.7793
-20.3262
-21.9648
-20.7682
-20.582
-48.9838
-103.72
-30.7088
-68.331
37.5626
39.8287
51.3171
53.1499
-27.4991
-25.3711
-25.1817
-20.8061
-28.5059
-20.4158
-21.989
-20.7566
-45.7037
-48.4494
-112.741
-30.1595
-75.4075
39.3416
40.7787
51.5294
-27.2306
-27.525
-25.387
-25.2412
-20.8414
-29.2087
-20.5054
-22.0048
-41.5736
-45.5559
-47.2382
-120.848
-29.4814
-82.3699
41.0069
41.386
-30.5486
-34.2785
-27.2381
-27.5551
-25.3881
-25.2629
-20.8855
-29.8784
-20.5678
-38.267
-41.7376
-45.5414
-45.9572
-128.001
-28.6569
-90.0276
42.2452
-28.187
-30.4815
-34.3092
-27.2069
-27.5612
-25.3883
-25.2598
-20.9127
-30.2914
-33.8465
-38.3886
-41.8281
-45.6024
-44.6637
-134.735
-27.8892
-96.5404
-34.6182
-30.9785
-27.8691
-30.5524
-34.24
-27.1586
-27.5478
-25.3907
-25.2523
-20.9021
-33.7442
-38.4695
-41.8977
-45.6839
-43.3634
-141.798
-27.7833
-34.976
-35.801
-31.7622
-30.7788
-27.7512
-30.508
-34.1585
-27.1319
-27.5248
-25.3976
-25.2594
-35.2409
-34.0742
-33.8624
-38.5345
-41.949
-45.7505
-42.1567
-147.123
-35.1537
-35.8484
-31.7159
-30.5067
-27.6506
-30.3766
-34.0501
-27.1252
-27.5016
-25.4067
-35.3259
-34.1498
-33.9887
-38.568
-41.98
-45.7473
-41.3811
-35.3
-35.7411
-31.6816
-30.2657
-27.5758
-30.1888
-33.9328
-27.1294
-27.492
-35.4438
-34.1575
-34.0846
-38.5794
-41.9886
-45.6719
-35.4563
-35.6249
-31.6532
-30.0524
-27.527
-29.9809
-33.8416
-27.1353
-35.5341
-34.1649
-34.1408
-38.57
-41.9726
-35.6293
-35.5361
-31.6254
-29.8547
-27.4763
-33.8068
-35.5985
-34.1717
-34.1478
-38.5471
-35.7908
-35.478
-31.5962
-29.6843
-27.4105
-35.6456
-34.1827
-34.1187
-35.4413
-31.5625
-29.5734
-35.6825
-34.1982
-35.4229
-31.5393
-35.7074
-34.2149
-3.24586
-3.63073
-3.68275
-4.19675
-4.17457
-4.74415
-3.17534
-3.64222
-2.71866
-3.96209
-4.02905
-4.58251
-4.67166
-5.33571
-5.33725
-6.00504
-8.06803
-8.83653
-8.89834
-9.81504
-9.63707
-5.98524
-6.66296
-4.71275
-5.3321
-3.56042
-4.09321
-2.60607
-3.01755
-2.13459
-10.5688
-10.2024
-4.15342
-4.34029
-4.93674
-5.04415
-5.65689
-5.87288
-6.63745
-6.66349
-7.42923
-7.3708
-8.08256
-8.83278
-9.61844
-9.6084
-10.4496
-10.6307
-11.6344
-11.5287
-6.60722
-7.32348
-7.2911
-8.08195
-8.01413
-8.80404
-9.29217
-5.21733
-5.84888
-3.91405
-4.47646
-2.83578
-3.26714
-1.94166
-2.27289
-1.46081
-8.67394
-9.07596
-12.4996
-13.4218
-10.1384
-10.9281
-11.8954
-4.23761
-4.4718
-5.09509
-5.33613
-6.03496
-6.14471
-6.88769
-7.18558
-8.01453
-8.09763
-8.89396
-9.66631
-10.5085
-10.4648
-11.305
-11.26
-12.2286
-12.3961
-13.0996
-13.4251
-14.525
-14.035
-14.909
-5.69052
-6.47561
-6.58335
-7.2624
-7.45608
-4.27022
-4.89181
-3.01251
-3.5078
-2.0157
-2.36244
-0.702962
-1.18486
-1.44935
-7.12534
-7.89889
-7.6473
-8.79996
-10.1679
-14.4857
-12.542
-13.9353
-11.4014
-12.5702
-4.15012
-4.49876
-5.16375
-5.45796
-6.1822
-6.4815
-7.21244
-7.41555
-8.22841
-8.50194
-9.18471
-9.6683
-11.2126
-10.8345
-12.238
-12.2533
-13.322
-13.2481
-13.886
-14.6733
-15.1383
-15.1984
-16.1151
-15.8287
-15.6712
-16.2351
-16.3606
-17.5616
-4.90704
-5.73059
-5.33325
-6.04822
0.142231
-0.340128
-3.35209
-4.08541
-2.02909
-2.5095
-0.516172
-1.08595
-1.35677
1.03106
0.585369
-5.67162
-6.46377
-6.31784
-18.7046
-17.6331
-19.3419
-7.67293
-8.98251
-10.28
-11.4592
-13.7467
-14.8802
-16.5571
-15.8935
-12.7155
-13.8038
-3.91404
-4.3389
-5.05823
-5.45961
-6.21868
-6.55709
-7.31835
-7.6412
-8.73921
-8.41114
-9.621
-9.81812
-10.7202
-11.2803
-12.8968
-12.3754
-13.8427
-13.9609
-14.6457
-15.2243
-15.0921
-20.6739
-21.0839
-19.8243
-16.1998
-15.9703
-16.9606
-16.9213
-17.2804
-18.0892
-17.6739
-19.815
-19.0678
-29.4932
-30.222
-29.8763
-32.5015
-31.3184
-30.8581
-31.0879
-30.7755
-3.67904
-4.26416
-3.72087
-4.40792
0.510519
-0.0600338
-2.11782
-2.69305
-0.25401
-0.941731
-1.26789
1.92355
1.54968
1.57425
1.0638
-3.95016
-4.8373
-7.67643
-4.49657
-6.02207
-29.1899
-27.6118
-23.5568
-22.7976
-21.4132
-17.0132
-18.4118
-19.1835
-20.6402
-7.89692
-8.99904
-8.85249
-10.3854
-11.7214
-13.0263
-14.3317
-15.1539
-16.53
-29.9025
-30.8706
-32.4357
-30.7902
-32.2261
-33.8915
-32.7426
-31.8979
-33.1642
-32.9856
-3.39011
-4.00846
-4.81938
-5.31784
-6.14171
-6.56994
-7.4843
-7.77387
-8.57462
-8.85304
-10.2451
-9.77536
-11.0992
-11.2575
-12.2718
-12.8459
-12.8838
-14.2251
-13.8144
-14.9883
-15.6973
-15.646
-16.6713
-16.7531
-16.3875
-22.0329
-22.9561
-25.085
-24.2155
-21.6891
-20.7715
-17.6977
-17.7789
-18.3883
-18.6538
-20.6361
-19.4413
-19.1158
-25.6764
-27.6703
-27.2287
-27.7819
-27.1626
-29.2516
-29.5021
-30.0808
-32.1817
-31.203
-31.629
-31.3436
-31.7509
-31.8617
-32.3998
-32.08
-31.6308
-31.7501
-2.04821
-2.55802
-1.84366
-2.54367
1.00967
0.317135
0.146504
-0.662652
-0.96855
2.76481
2.45265
2.58176
2.15465
2.24391
1.69477
-1.70565
-2.33224
-3.65037
-3.98204
-5.51607
-6.41299
-2.94626
-24.8104
-27.2639
-26.1761
-30.0211
-28.6882
-24.0924
-25.2857
-23.4647
-21.4944
-6.47689
-21.2383
-17.4417
-19.8219
-18.7784
-7.55921
-8.53744
-10.085
-10.5759
-12.1434
-12.5929
-14.3822
-15.3737
-17.131
-30.1224
-31.001
-29.9896
-32.9842
-32.7025
-34.2813
-32.4616
-32.3236
-31.5172
-32.0573
-33.286
-32.9807
-2.7271
-3.37154
-2.1388
-2.19667
-4.32952
-5.0381
-6.00763
-6.48794
-7.49902
-8.03252
-9.11833
-9.2369
-10.5307
-11.3784
-10.2575
-12.0176
-12.6195
-13.5727
-14.0945
-14.9096
-13.5621
-14.1007
-15.5955
-15.6353
-15.6599
-16.476
-16.3507
-16.451
-16.4369
-17.1853
-17.2965
-18.0033
-18.3695
-22.6253
-23.6163
-24.6986
-24.0703
-22.2985
-21.6061
-19.3371
-19.6442
-21.4341
-20.4565
-20.3662
-25.5167
-25.1596
-25.5709
-28.3521
-27.2054
-29.0677
-28.8396
-30.5396
-27.6279
-30.0967
-30.3885
-31.8278
-31.4262
-31.0728
-32.3258
-30.4022
-31.4987
-0.446887
-0.25013
-0.654546
0.0266827
1.68482
0.926484
0.734995
0.287685
3.58246
3.34704
3.60378
3.24966
3.45463
2.96516
3.07635
2.41728
4.30782
4.16589
4.89193
4.91474
5.47966
5.33384
1.0857
-0.514517
-1.29937
-1.3416
-5.19521
-3.45023
-1.57544
-0.7952
-28.703
-28.2709
-26.6532
-22.4927
-25.7649
-24.2931
-4.90977
-6.66194
-8.43694
-22.7882
-18.6244
-21.2122
-19.9827
-10.192
-11.2513
-12.7704
-13.2746
-14.8991
-15.4479
-17.4558
-29.0436
-32.7862
-33.4219
-32.2909
-31.3095
-34.3229
-35.3252
-34.4924
-35.3085
-33.1496
-33.1277
-33.7081
-34.4411
-34.0557
-1.31334
-1.82501
-4.31693
-4.37164
-3.13017
-3.73057
-5.69143
-6.24903
-8.0508
-8.09701
-9.19472
-9.67042
-11.2754
-11.228
-12.1143
-12.7024
-13.669
-13.9917
-14.9165
-14.7594
-15.5106
-16.113
-17.0367
-16.691
-17.319
-16.9805
-17.6933
-17.7275
-17.9606
-17.8898
-18.68
-19.0216
-19.6713
-20.0499
-24.219
-22.958
-23.8437
-23.2656
-22.2574
-20.651
-21.6445
-21.0745
-21.4848
-26.3884
-24.9482
-27.462
-25.9351
-27.9533
-28.18
-27.4721
-31.0977
-28.926
-32.9832
-31.1008
5.53861
5.80875
0.937569
1.14209
2.43957
1.6893
1.82161
2.12577
2.42194
4.50849
4.21143
4.51574
4.12586
4.39823
3.88201
4.12924
3.45831
5.35363
5.21137
6.02203
6.03299
6.63204
6.4433
2.96245
2.535
2.46648
0.681928
-3.10237
-1.53222
0.144584
1.39342
-24.7848
-26.8094
-28.0086
-3.181
-5.21544
-7.08271
-9.13854
-11.0024
-22.6423
-24.4844
-18.9063
-21.7454
-13.0304
-14.2432
-16.4308
-16.8461
-19.0899
-28.8948
-31.134
-30.6941
-33.8536
-31.3615
-32.9544
-34.769
-34.7686
-35.4692
-33.5289
-34.5965
-34.8234
-35.2305
-34.0462
-1.11874
-3.10766
-2.28275
-1.92891
-2.37126
-4.07381
-4.97334
-5.35539
-4.07642
-5.21522
-7.91607
-8.1589
-9.57601
-9.05066
-11.9396
-12.185
-14.3294
-13.2978
-13.278
-14.0697
-14.286
-15.3113
-15.6207
-16.3273
-16.7445
-17.7603
-18.3192
-18.2204
-17.9997
-18.5865
-18.7006
-18.2656
-19.5403
-19.4506
-19.4756
-19.9387
-21.3648
-24.7535
-24.3196
-23.3043
-22.1139
-21.53
-22.9519
-22.622
-22.0838
-25.5903
-25.4588
-27.4207
-26.5519
-27.7075
-27.8245
-27.9487
-27.6447
5.54594
5.92711
6.58893
6.93018
3.6417
3.01883
3.3316
4.38183
4.28337
5.67192
5.39447
5.84894
5.26866
5.54037
4.88508
4.99271
6.48971
6.5967
7.34004
7.29568
8.01682
7.6869
6.15553
4.91567
4.23674
3.41045
4.65444
7.65334
-1.3842
0.278967
2.41978
4.09716
-1.23001
-28.6326
-26.4841
-2.97488
-5.26824
-7.45721
-9.78696
-12.8661
-14.9738
-14.4772
-21.3759
-26.0302
-23.6712
-17.8401
-18.4124
-21.0285
-32.0757
-30.0402
-35.152
-33.6906
-35.7706
-35.8089
-36.2893
-35.4074
-35.5225
-34.1927
-2.96197
-2.40505
-2.71757
-3.80315
-3.92583
-3.3023
-4.04325
-5.79644
-6.84309
-8.02904
-6.40481
-8.10715
-8.09592
-8.95661
-12.9798
-12.22
-13.7297
-13.8967
-16.788
-15.0265
-14.9025
-14.1799
-16.161
-17.611
-17.1411
-18.3706
-18.5556
-18.3426
-19.1783
-18.372
-19.5183
-20.0208
-20.0726
-18.8874
-20.6722
-20.0733
-20.5786
-21.7556
-22.7891
-25.8159
-25.0824
-21.8759
-21.9963
-22.9008
-22.4478
-26.0442
-25.8582
-27.1042
-26.277
-27.6018
-27.024
-3.52461
-3.58804
5.33691
5.84528
6.47928
6.94257
7.66372
8.21511
5.9368
5.79182
6.73577
7.81356
8.42326
7.10385
6.82606
7.31725
6.60164
6.98225
8.08868
8.08854
8.91686
8.82798
9.67021
9.11294
9.63753
7.68165
6.26805
6.63227
10.3777
9.55675
1.01555
2.95398
5.67375
7.28265
1.34202
-0.673842
-2.81141
-32.5136
-28.7712
-5.778
-8.82375
-12.1888
-14.4487
-18.3936
-19.8281
-23.5835
-27.3931
-30.4518
-25.1539
-37.7241
-35.2123
-38.5723
-38.8505
-39.2721
-38.1078
-39.1566
-38.3109
-4.27598
-4.00995
-5.15752
-5.22635
-6.07556
-5.4219
-6.2878
-7.71814
-8.60616
-9.71085
-8.44418
-9.70398
-13.7161
-11.0151
-12.1969
-13.133
-14.1218
-14.0968
-15.285
-17.569
-16.0671
-17.4426
-15.9046
-18.7199
-18.0557
-20.3243
-18.7625
-19.6465
-18.9584
-19.1356
-19.0222
-20.0185
-20.416
-20.3669
-20.531
-20.1746
-21.3431
-21.1702
-21.8743
-22.1661
-23.4163
-22.335
-24.436
-23.5142
-23.6681
-25.2538
-24.9842
-25.6187
-25.096
-3.96969
-4.14329
-4.96288
-4.97747
4.891
5.49134
6.07462
6.64262
7.29586
7.96287
9.50863
8.81019
4.26658
4.88392
10.5926
10.2088
8.37194
8.90385
8.89813
8.56641
9.14999
10.082
9.89419
10.881
10.6276
11.2734
10.4375
12.0966
12.5922
13.4432
12.5795
9.35111
10.3838
6.28142
4.27697
10.6659
9.09469
5.24997
2.71962
-1.2449
3.60365
-4.17353
-6.89616
-37.6646
-33.9455
-11.2146
-15.7189
-22.5874
-24.4363
-33.6067
-38.5541
-32.8648
-40.0553
-40.1598
-41.7189
-41.1774
-42.4641
-41.1598
-5.82964
-6.27295
-6.93993
-7.10026
-8.14586
-7.5702
-9.01248
-9.86182
-10.8747
-11.9173
-10.8861
-11.922
-14.8415
-13.8835
-13.1863
-14.168
-17.7727
-14.9723
-15.315
-16.9482
-16.4473
-18.2113
-17.5177
-17.8128
-17.8392
-19.3173
-18.8143
-19.9262
-20.117
-19.7135
-19.7867
-19.5007
-19.4638
-20.4534
-20.6237
-20.6929
-21.0349
-20.4621
-20.7018
-20.3003
-21.8395
-21.3495
-23.6238
-22.4725
-24.8207
-23.5629
-21.894
-25.1021
-24.6011
-4.2565
-4.48749
-5.19011
-5.41179
-6.17928
-6.3895
5.38564
6.07007
6.62471
7.36387
10.8193
9.01119
9.97638
8.13387
3.53244
4.12766
4.52499
5.22387
2.72012
3.31084
1.86006
2.43016
12.5972
11.2472
10.8665
11.8516
11.1175
11.9153
12.3877
12.0626
13.2516
12.4735
12.7799
12.0872
11.9025
14.0743
15.0235
15.2649
16.546
15.9715
13.745
13.0907
10.0426
8.12267
14.4239
13.0939
8.91779
6.52383
-0.338284
-5.23683
6.4685
2.59513
-8.62166
-14.0397
-45.4928
-42.8892
-23.2677
-31.755
-40.8871
-46.3093
-39.8152
-46.5119
-44.4697
-46.5779
-46.246
-7.34989
-8.14242
-10.2956
-10.3691
-9.39444
-9.40587
-11.1456
-12.1636
-13.0792
-13.9295
-13.4559
-14.1669
-16.0184
-15.006
-14.7026
-15.2936
-18.0292
-17.8744
-16.9314
-18.3759
-16.9291
-17.4201
-18.6677
-18.9724
-18.2248
-19.4561
-19.4388
-20.6804
-20.2696
-20.2719
-20.1973
-20.1402
-20.7639
-20.7288
-20.5583
-20.7429
-20.6373
-20.4166
-21.2073
-20.5917
-21.2827
-23.6548
-21.474
-21.8077
-25.1752
-21.7163
-7.75917
-4.21382
-4.50961
-5.23152
-5.57651
-6.32611
-6.63555
-7.32633
-4.18831
-4.47529
-3.99069
-4.35275
-3.66253
-4.06635
0.99916
1.49227
0.142304
0.564608
-0.693561
-0.319987
-1.44521
-1.16721
-3.25862
-3.70185
-2.72528
-3.19151
-2.12816
-1.92243
-2.60442
5.69233
6.54646
7.1784
8.15368
10.0918
11.0195
8.97833
3.60311
4.29659
4.67349
5.43412
2.59114
3.24985
1.52331
2.12789
10.8861
13.5848
14.9985
13.7235
14.2235
13.8431
15.3961
14.7669
15.8243
14.9625
13.1421
13.3446
11.869
16.4372
16.8014
17.1483
18.4923
18.3644
20.0894
20.0901
17.7337
17.2834
14.4042
12.3409
18.9294
17.5937
12.6528
9.80448
-10.554
-1.33846
-8.99244
8.38555
2.89205
-20.5196
-24.8579
-47.9693
-50.3374
-35.6488
-66.0236
-55.917
-54.3647
-47.0294
-8.80466
-9.57309
-11.7072
-11.895
-12.0003
-10.7178
-11.4615
-13.5253
-13.9988
-15.1061
-15.3918
-15.0091
-15.9806
-15.6782
-16.3766
-17.1862
-16.2463
-19.4228
-18.874
-17.7271
-18.0845
-18.8927
-18.542
-19.5074
-19.4554
-20.3976
-20.4058
-20.574
-20.4707
-20.9516
-20.9361
-20.8541
-21.1641
-20.8934
-20.9763
-20.9467
-20.6488
-21.0694
-20.6538
-20.4976
-24.7958
-20.721
-9.10723
-7.58402
-8.393
-5.12772
-5.53723
-6.2512
-6.64346
-7.31375
-4.90189
-5.29946
-4.61791
-5.06324
-4.20671
-4.68126
0.490188
1.00583
-0.48168
-0.0617948
-1.43847
-1.06226
-2.23589
-2.01425
-3.65912
-4.17191
-3.00609
-2.78907
-3.55092
5.86945
6.89497
7.45316
8.72936
9.54691
3.47649
4.2556
4.52077
5.42512
2.19428
2.91437
0.880271
1.54904
8.93767
11.2182
9.77522
17.2388
16.9909
16.443
18.2498
17.4588
18.0425
15.9734
14.3295
14.0973
12.2724
20.2416
18.9361
19.0987
21.9499
21.8838
23.9662
24.0698
22.1817
22.3318
19.1421
17.1108
24.1617
22.6573
17.4522
13.8709
-13.2006
-21.7785
-2.24947
-12.1022
11.1016
3.37686
-28.9576
-30.7688
-40.59
-88.0957
-80.3686
-10.0494
-10.6887
-11.6254
-12.7158
-13.4407
-13.2072
-13.2447
-12.6658
-16.0334
-16.6182
-17.2018
-17.2176
-16.4484
-17.7423
-17.0524
-17.8942
-18.2166
-18.5565
-18.2506
-18.0683
-19.7488
-19.4171
-18.8845
-19.0889
-19.7538
-19.4581
-20.1562
-20.434
-20.6424
-20.6632
-21.1703
-21.004
-21.0396
-21.1585
-21.3942
-21.352
-21.4025
-21.3282
-20.0128
-21.5895
-20.8315
-30.2167
-9.04456
-9.89536
-7.73255
-8.62656
-5.97457
-6.44379
-7.29538
-5.77224
-6.28693
-5.3133
-5.89461
-4.68181
-5.26816
-0.256879
0.223623
-1.33297
-0.913974
-2.38882
-2.01818
-3.21922
-3.03609
-4.02492
-3.85174
-4.61148
5.77091
7.01196
7.64149
7.18972
3.003
3.87758
4.05541
5.09823
1.49536
2.27884
0.00988909
0.794463
9.28721
7.8405
11.6018
10.08
17.4608
17.4245
21.0668
20.3186
19.6557
18.73
21.3935
21.0737
12.4159
16.8181
15.2395
14.1312
23.3775
23.2562
25.8111
25.5315
27.0574
27.9212
26.5292
28.0151
24.0455
22.3473
28.7697
27.5442
23.686
19.7729
21.5734
-18.8558
-28.667
14.053
-6.0127
-17.6851
-32.4292
-28.5672
-13.8438
-10.2153
-11.0372
-11.7308
-12.7174
-13.5967
-15.8988
-14.4705
-15.3554
-17.6883
-17.2394
-18.7454
-18.8112
-17.2565
-18.5721
-19.0894
-19.2028
-19.3565
-18.9373
-19.2442
-19.4969
-19.394
-19.3511
-20.2227
-20.0235
-19.7604
-19.8391
-20.1589
-21.0469
-20.5757
-20.7631
-21.093
-21.1078
-21.2588
-21.2514
-21.0584
-21.1736
-21.8582
-21.1549
-9.09782
-9.81628
-7.19865
-7.74014
-8.6382
-6.59883
-7.23834
-5.91437
-6.57186
-5.18191
-5.85411
-1.20345
-0.72509
-2.43313
-1.98625
-3.54266
-3.23916
-4.36928
-4.2276
-5.0566
7.10479
5.3277
6.21101
5.82703
2.31195
3.19705
4.16771
3.38219
0.712609
1.52908
-0.998605
-0.213819
9.0676
7.08368
5.74598
11.3909
9.63981
17.9159
20.6901
19.5938
20.4598
24.9506
23.5945
24.7893
22.6732
22.9488
14.9554
12.4511
17.6635
16.3103
19.2569
27.6157
27.1458
30.8652
33.3158
30.4057
31.1769
31.7833
32.4788
33.459
28.7876
29.7448
29.9149
25.5529
27.1668
25.8583
21.4426
-21.5787
-39.7412
-36.1984
-15.8406
-10.2798
-14.3901
-14.8857
-11.3051
-11.5932
-12.444
-12.9815
-13.6725
-14.3131
-16.1823
-15.9587
-17.5462
-17.2529
-19.7561
-19.7995
-18.7249
-18.9646
-20.1946
-20.0085
-19.3653
-19.3413
-20.0046
-20.0904
-20.1313
-20.6619
-20.5213
-20.3407
-20.559
-20.9247
-20.8012
-21.1012
-21.0362
-21.0023
-20.9779
-21.0238
-21.0601
-10.2808
-8.00858
-8.60073
-9.36118
-9.66484
-7.30631
-8.02466
-6.50661
-7.21049