/*--------------------------------*- C++ -*----------------------------------*\
  =========                 |
  \\      /  F ield         | OpenFOAM: The Open Source CFD Toolbox
   \\    /   O peration     | Website:  https://openfoam.org
    \\  /    A nd           | Version:  8
     \\/     M anipulation  |
\*---------------------------------------------------------------------------*/
FoamFile
{
    version     2.0;
    format      ascii;
    class       volVectorField;
    location    "7000";
    object      U;
}
// * * * * * * * * * * * * * * * * * * * * * * * * * * * * * * * * * * * * * //

dimensions      [0 1 -1 0 0 0 0];

internalField   nonuniform List<vector> 
4109
(
(10.1197 0.000524228 0)
(10.1223 0.000554418 3.87647e-21)
(10.124 0.0025071 0)
(10.1218 -0.000216497 -8.3519e-21)
(10.1242 0.00150912 4.01635e-22)
(10.1269 0.00237451 6.68492e-23)
(10.1278 0.00251659 -2.46681e-22)
(10.1334 0.00401991 0)
(10.1288 0.00239385 0)
(10.123 0.000387674 -2.87524e-21)
(10.125 0.00129591 3.4961e-21)
(10.1338 0.00315 1.53892e-21)
(10.1364 0.00798158 2.24801e-21)
(10.1368 0.00429921 -1.11434e-22)
(10.1346 0.00331767 2.37809e-21)
(10.13 0.00222736 -8.97188e-22)
(10.1243 0.00061712 5.53309e-22)
(10.1267 0.00160848 6.48677e-23)
(10.1356 0.00324061 0)
(10.1404 0.00370172 -3.23721e-21)
(10.159 0.00816926 1.84865e-21)
(10.1427 0.0084289 -5.07669e-21)
(10.1466 0.00601622 -5.7605e-22)
(10.1312 0.00229722 -2.2467e-21)
(10.1285 0.00176059 9.1624e-21)
(10.1256 0.000843221 3.10064e-21)
(10.1329 -0.00211483 0)
(10.1362 -0.00227756 8.96954e-22)
(10.1404 -0.00216516 -6.49884e-23)
(10.136 0.00326597 0)
(10.1419 0.00324113 0)
(10.1465 0.00465146 3.92588e-21)
(10.2209 -1.49384e-05 -1.01486e-21)
(10.1507 0.00705711 -7.10474e-21)
(10.1489 0.00602697 0)
(10.132 0.00234455 -1.61817e-22)
(10.1279 0.00154351 -9.10275e-21)
(10.1266 0.000753444 -5.05169e-21)
(10.1327 -0.00216537 -1.43327e-21)
(10.1249 -0.00161315 0)
(10.1421 -0.00303162 -1.34071e-22)
(10.1392 -0.00332739 4.89814e-22)
(10.1418 -0.00892387 -1.50379e-22)
(10.1365 0.00334988 -2.27551e-21)
(10.1421 0.00324155 0)
(9.48074 0.0260974 7.08075e-22)
(10.135 -0.000367616 3.80641e-22)
(10.1489 0.00467287 -1.41276e-22)
(10.1496 0.00403889 6.77146e-22)
(10.2167 -0.00104831 4.62769e-21)
(10.1535 0.005346 4.26018e-21)
(10.1308 0.00203286 -1.33617e-22)
(10.1292 0.00185362 -8.84504e-21)
(10.1281 0.00102605 1.98711e-21)
(10.1329 -0.00249859 -9.38133e-22)
(10.1266 -0.00185982 0)
(10.119 -0.000356112 0)
(10.1416 -0.00526706 1.24017e-22)
(10.143 -0.00416497 1.53808e-22)
(10.1389 -0.00347042 0)
(10.2401 -0.00275832 -1.44529e-22)
(8.88599 0.0142874 0)
(10.1362 0.00331265 -7.77214e-21)
(10.1427 0.00324399 0)
(10.1487 0.00440313 6.07621e-22)
(10.2461 -0.000856804 -3.86421e-22)
(9.74636 0.0281023 1.58285e-20)
(10.15 0.00376292 0)
(10.1508 0.00632531 -9.57862e-22)
(10.2301 -0.000411177 -5.83744e-22)
(10.1298 0.00127289 2.66398e-21)
(10.1309 0.00227146 5.90085e-21)
(10.1355 0.00388472 0)
(10.1319 0.00141301 1.20408e-20)
(10.1331 0.0022677 -1.79742e-20)
(10.1339 -0.00284297 9.46178e-22)
(10.1284 -0.00195076 0)
(10.1266 -0.00176025 0)
(10.1204 -0.000466352 0)
(10.2207 0.00676802 1.6959e-22)
(10.1468 -0.00463753 7.99856e-22)
(10.1416 -0.00485407 -7.34521e-22)
(10.1451 -0.00360155 8.75311e-23)
(10.1395 -0.00389151 0)
(10.3543 0.0186199 1.21013e-21)
(10.258 1.32739e-05 0)
(9.37365 -0.0429295 0)
(9.21595 0.0310651 -3.08735e-20)
(8.84228 0.0202497 -1.05169e-21)
(10.1348 0.00273641 3.03975e-21)
(10.1371 0.00329994 7.7753e-21)
(10.1432 0.00334095 0)
(10.1492 0.00450286 -3.18754e-22)
(10.1506 0.0035189 -1.988e-22)
(10.2875 -0.00495159 0)
(9.99272 0.0122857 0)
(10.1483 0.00595206 0)
(10.2206 0.000554159 3.09593e-22)
(10.1372 0.00394742 6.34408e-22)
(10.1343 0.00322463 -1.18725e-20)
(10.1318 0.00249202 1.35196e-20)
(10.1365 0.00384734 8.54108e-21)
(10.1383 0.00452293 5.44071e-21)
(10.1347 0.00274231 6.33445e-21)
(10.1342 0.0012294 2.47075e-21)
(10.1347 -0.00332812 3.95426e-22)
(10.1305 -0.00263119 3.49888e-22)
(10.1263 -0.00154052 0)
(10.1212 -0.000624369 2.82542e-21)
(10.2091 0.00183142 1.55503e-22)
(10.3295 0.00917201 0)
(10.1451 -0.0053612 -3.19861e-22)
(10.1455 -0.00427885 -3.13343e-23)
(10.1454 -0.00402503 0)
(10.1399 -0.00420335 0)
(9.01876 -0.0380118 -1.43719e-20)
(10.1706 -0.0132037 -1.07987e-21)
(9.90988 -0.0362007 1.72608e-20)
(9.56751 0.0395205 -7.2135e-21)
(9.04843 0.0114489 1.10076e-20)
(8.75679 -0.00318619 8.6213e-21)
(10.2989 0.00206968 1.37863e-22)
(10.1362 0.00331225 -1.38984e-20)
(10.1394 0.00391951 -2.40199e-21)
(10.1441 0.00368697 -7.67736e-22)
(10.1495 0.00479661 0)
(10.1514 0.00387783 6.33275e-22)
(10.1472 0.00612023 -2.02027e-21)
(10.0767 0.00441081 3.38555e-21)
(10.3091 -0.00161208 0)
(10.2078 0.000917912 2.35564e-22)
(10.1404 0.00522278 7.03626e-21)
(10.1373 0.00406427 -4.41939e-21)
(10.1387 0.00472769 -8.35382e-21)
(10.1409 0.00583281 5.17551e-22)
(10.1372 0.00155666 0)
(10.1375 0.00379995 -5.02234e-21)
(10.1355 -0.00386086 -7.73368e-22)
(10.1307 -0.00281272 0)
(10.1268 -0.00171219 1.0666e-21)
(10.1224 -0.00075868 -2.82513e-21)
(10.2107 -0.00125679 -2.38184e-23)
(10.3261 -0.00305277 0)
(10.1429 -0.00662444 0)
(10.1466 -0.00443234 -3.01134e-22)
(10.1457 -0.00420284 1.50151e-22)
(10.1404 -0.00469344 0)
(9.13905 -0.034623 -8.23157e-21)
(9.85909 -0.039113 5.31849e-22)
(9.08638 0.00959279 0)
(9.64726 0.0186288 -3.79524e-21)
(8.76042 0.022541 0)
(10.2683 -0.00129125 -1.28725e-22)
(10.1399 0.00439087 1.10816e-20)
(10.1395 0.00391996 2.40181e-21)
(10.145 0.00418434 7.2996e-22)
(10.1502 0.00562579 2.36557e-21)
(10.1514 0.0044146 1.11043e-21)
(10.1468 0.00697133 1.23826e-21)
(10.2021 0.00308889 -3.93078e-23)
(10.1214 0.00212743 -3.47064e-24)
(10.3213 -0.0026455 -2.35383e-22)
(10.1441 0.00620385 1.97748e-21)
(10.1402 0.00452658 0)
(10.1416 0.00627509 -3.21334e-22)
(10.1449 0.00726927 -1.70627e-21)
(10.1426 0.00640055 -2.12497e-22)
(10.141 0.00538778 0)
(10.1408 0.00178258 0)
(10.1365 -0.00456997 2.9702e-22)
(10.132 -0.00341348 1.15556e-22)
(10.1281 -0.00208709 -2.30255e-21)
(10.1232 -0.000649301 -4.7681e-22)
(10.2068 -0.00457542 -1.98022e-23)
(10.3266 -0.00412982 0)
(10.1409 -0.00766848 6.16488e-22)
(10.1483 -0.0045497 -1.4727e-22)
(10.1457 -0.00488689 -5.94913e-22)
(10.1413 -0.00561041 -3.63969e-22)
(9.77439 -0.0296354 -5.55131e-22)
(8.88283 -0.0128305 0)
(9.7055 0.0164745 4.0666e-24)
(9.0961 0.00601696 4.70719e-22)
(8.76181 0.0207202 1.06757e-22)
(10.286 0.00326009 1.77222e-22)
(10.1456 0.00444155 -2.54722e-23)
(10.1462 0.00485974 2.54638e-23)
(10.1519 0.00622057 -1.22689e-21)
(10.1479 0.00758763 -1.99685e-21)
(10.1549 0.00410877 -8.85394e-22)
(10.1906 0.00624296 1.06352e-21)
(10.1074 0.00498964 -2.27115e-22)
(10.3172 0.000780596 1.3666e-22)
(10.1469 0.00536103 -9.53671e-22)
(10.1477 0.00636525 4.99001e-22)
(10.146 0.00829824 -5.00899e-22)
(10.1487 0.00754831 -6.87485e-22)
(10.1477 0.00932737 4.96895e-22)
(10.1461 0.00770686 2.48809e-22)
(10.1421 0.00501467 1.87746e-21)
(10.1449 0.000844227 0)
(10.1378 -0.00529165 -6.33225e-22)
(10.1332 -0.00388089 3.07013e-22)
(10.1295 -0.00251151 1.97528e-21)
(10.1248 -0.000893514 3.73293e-22)
(10.1929 -0.0062807 -3.4656e-22)
(10.3171 -0.00337538 -5.87681e-22)
(10.1398 -0.00785682 3.89306e-22)
(10.1495 -0.00533526 2.18286e-23)
(10.1463 -0.00649646 8.69533e-22)
(10.1428 -0.00686407 0)
(9.76131 -0.0191541 -1.31088e-21)
(8.86916 -0.00637051 6.33576e-22)
(9.07552 -0.00155739 0)
(9.68094 0.0117892 5.6627e-23)
(8.75447 0.0197209 -7.36999e-22)
(10.313 0.011669 1.94937e-22)
(10.1528 0.00532769 0)
(10.1531 0.00566996 -9.37144e-22)
(10.1566 0.00420827 -3.04961e-21)
(10.1737 0.0130563 2.21622e-21)
(10.1067 0.00388833 1.58062e-24)
(10.3164 0.00249795 -4.71361e-22)
(10.1533 0.00704674 1.12031e-21)
(10.1536 0.00847892 2.09342e-21)
(10.1501 0.00887686 2.0583e-21)
(10.1543 0.0102003 -1.42922e-21)
(10.152 0.0101455 -1.04824e-21)
(10.1498 0.0104243 0)
(10.1473 0.00744078 -2.11402e-21)
(10.146 0.00574261 -2.15722e-21)
(10.1494 0.000836485 0)
(10.1392 -0.00591808 -2.90642e-21)
(10.1345 -0.00422914 7.61031e-21)
(10.1312 -0.00287895 3.37984e-21)
(10.1263 -0.000970302 -6.37203e-22)
(10.1769 -0.00776116 -2.51506e-22)
(10.3019 -0.00404626 1.59625e-22)
(10.1509 -0.00736131 -7.54478e-22)
(10.1405 -0.00800277 1.02444e-21)
(10.1407 -0.0063086 0)
(10.1483 -0.00888159 0)
(10.1446 -0.00788241 0)
(9.82312 -0.0166325 2.88641e-22)
(8.87944 -0.00896595 4.83139e-22)
(9.68285 0.0052058 5.30487e-23)
(9.07975 -0.00894188 6.58091e-23)
(8.76073 0.0212515 -6.45713e-23)
(10.3286 0.0174206 -4.86316e-22)
(10.1584 0.0030831 0)
(10.1566 0.00473788 4.96792e-22)
(10.1652 0.0165053 7.45401e-22)
(10.1063 0.00382059 -1.11438e-21)
(10.3181 0.0080606 5.79207e-22)
(10.1571 0.00685651 -3.40095e-22)
(10.1585 0.00753713 -2.72587e-22)
(10.1553 0.0119692 -4.01595e-22)
(10.1598 0.0100996 0)
(10.1567 0.0139852 0)
(10.1542 0.0113758 -3.23202e-22)
(10.1523 0.0113636 2.73207e-21)
(10.1505 0.00816523 -1.12776e-20)
(10.1503 0.00586122 0)
(10.1538 0.000958157 0)
(10.1372 -0.00502921 4.09884e-21)
(10.1343 -0.00404953 -5.5616e-21)
(10.1283 -0.00111113 2.36865e-21)
(10.1395 -0.0056672 4.10243e-21)
(10.1526 -0.0104299 1.87024e-21)
(10.279 -0.00503164 -3.31446e-21)
(10.1513 -0.0092895 -7.22997e-23)
(10.1429 -0.00689676 0)
(10.1463 -0.00853901 0)
(10.1507 -0.0100353 -5.74755e-22)
(8.88511 -0.00586745 2.93787e-22)
(9.86048 -0.0142353 5.12446e-22)
(9.08965 -0.0249122 8.07433e-22)
(9.68729 -0.00845331 -7.78587e-22)
(8.7663 0.0185269 0)
(10.3381 0.0272663 1.0545e-21)
(10.0158 -0.0174839 1.28206e-19)
(10.1675 0.0158629 0)
(10.1636 0.0099722 -2.37215e-22)
(10.1129 0.00560991 -1.49805e-20)
(10.3296 0.00658573 -4.2618e-21)
(10.1529 0.0130106 1.47703e-21)
(10.1558 0.0114623 -4.63554e-22)
(10.1612 0.0120497 2.90792e-21)
(10.154 0.0166784 4.60228e-22)
(10.1632 0.0145048 -8.09187e-23)
(10.1585 0.0158272 -1.1232e-22)
(10.1568 0.0125599 0)
(10.1552 0.0122779 -6.11245e-21)
(10.1543 0.00894801 2.27991e-20)
(10.1549 0.00632597 0)
(10.1556 0.00430231 7.05791e-21)
(10.1572 -0.000647329 0)
(10.1289 -0.000618751 0)
(10.135 -0.00351884 2.40103e-21)
(10.1319 -0.00246725 -3.65348e-21)
(10.1405 -0.00555698 2.06555e-22)
(10.1444 -0.00710928 1.59814e-21)
(10.1387 -0.0145117 0)
(10.2596 -0.0088684 1.43923e-21)
(10.1558 -0.0112528 1.25253e-21)
(10.148 -0.00901263 6.0161e-22)
(10.1531 -0.0103937 0)
(9.88878 -0.00618459 1.22121e-21)
(8.86761 -0.000118529 -6.93032e-22)
(9.10585 -0.0297991 4.0875e-20)
(9.74106 -0.0149923 -2.82111e-20)
(8.78123 0.0160319 3.20804e-20)
(10.3336 0.0299934 -1.02931e-21)
(10.0116 -0.00270795 -2.12293e-19)
(10.0142 -0.0198765 5.54189e-20)
(10.0108 -0.0138459 -6.23103e-20)
(10.022 -0.0211862 -8.25141e-20)
(10.0172 -0.00651525 1.88208e-19)
(10.028 -0.0266705 7.31139e-20)
(9.97294 0.0171524 2.77588e-20)
(10.3405 -0.0152605 1.95458e-20)
(10.2798 -0.0294689 -1.85209e-20)
(10.1918 -0.000114847 -1.50715e-21)
(10.2033 0.00181285 -5.93768e-21)
(10.158 0.0114329 -2.92857e-22)
(10.1574 0.017793 0)
(10.1617 0.0209361 -1.70176e-21)
(10.1652 0.0160278 0)
(10.161 0.0176564 0)
(10.1612 0.0078892 4.40229e-20)
(10.1599 0.0137783 1.11488e-21)
(10.1588 0.0130657 1.90491e-20)
(10.1589 0.00966427 -1.91854e-20)
(10.1589 0.00368824 -6.82873e-21)
(10.1583 -0.00141416 0)
(10.1604 0.000790721 0)
(10.1565 -0.00255122 1.2734e-20)
(10.1319 -0.00168331 -5.35846e-22)
(10.1355 -0.00321104 -7.5197e-21)
(10.1426 -0.00595277 -4.80883e-21)
(10.1462 -0.00745558 -5.17583e-21)
(10.1497 -0.00935559 -7.53483e-22)
(10.1389 -0.0197949 0)
(10.2597 -0.0109543 -2.95725e-21)
(10.1589 -0.0122211 -1.12735e-21)
(10.1552 -0.0102463 -1.64726e-23)
(9.89172 0.000611564 7.65823e-21)
(8.76562 0.00650901 5.71616e-22)
(8.97735 0.0202586 2.60265e-20)
(10.3267 0.011344 9.25932e-22)
(10.0008 -0.00197629 -5.61887e-20)
(10.0042 -0.00162414 5.60721e-20)
(10.007 -0.00904339 0)
(10.0193 -0.0246199 -2.269e-20)
(10.0113 -0.0246268 8.53751e-20)
(10.0069 -0.0176252 7.21179e-20)
(10.1498 -0.00528526 0)
(10.1551 -0.0109789 7.12016e-21)
(10.1567 -0.0250555 5.73315e-21)
(10.0258 -0.00783257 -2.88631e-21)
(10.0314 -0.0193432 -1.9021e-20)
(10.0242 -0.0120514 4.7866e-20)
(10.0341 -0.0269425 -6.51047e-21)
(10.0258 -0.0304479 2.76689e-20)
(9.5177 0.0553428 -6.07642e-20)
(10.3523 -0.0333524 -4.39753e-21)
(10.3281 0.00760166 2.70593e-20)
(10.273 -0.00105465 -9.8284e-21)
(10.1691 0.0134167 -1.72568e-22)
(10.1652 0.00724697 1.74828e-21)
(10.1565 0.0225326 -1.33203e-20)
(10.1694 0.0209694 0)
(10.1676 0.0183124 0)
(10.164 0.0197387 -1.10121e-21)
(10.1639 0.0102043 0)
(10.1635 0.0149987 0)
(10.1629 0.0135884 -6.51043e-21)
(10.1657 0.00202398 0)
(10.1645 0.00461438 -3.19106e-20)
(10.1608 -0.00498679 -7.69168e-20)
(10.1647 -0.00158579 5.201e-20)
(10.1657 -0.0165252 0)
(10.1735 -0.033946 1.61296e-20)
(10.1346 -0.00158287 7.96316e-21)
(10.1383 -0.00393494 -4.08995e-22)
(10.1453 -0.00665286 -2.00007e-20)
(10.148 -0.00788929 1.12981e-20)
(10.1514 -0.00974228 2.13036e-22)
(10.1569 -0.0104436 -1.63203e-22)
(10.1441 -0.0206472 8.45049e-22)
(10.2491 -0.0144518 1.06076e-21)
(10.1609 -0.0117173 -4.7364e-22)
(9.93291 -0.0196998 -1.18249e-20)
(8.57839 0.00820268 1.82479e-20)
(10.0004 -0.00286522 -1.16444e-19)
(10.003 -0.0095152 4.94072e-20)
(10.0163 -0.0308108 -2.8032e-20)
(10.0093 -0.0286156 1.95712e-21)
(10.0052 -0.0203412 -1.37683e-19)
(10.1443 -0.0173723 -1.29339e-20)
(10.1378 -0.0078369 1.10808e-20)
(10.1448 -0.0341343 0)
(10.1839 -0.0562241 -3.06203e-20)
(10.1624 -0.0451579 -1.68189e-20)
(10.0401 -0.0164011 1.6793e-22)
(10.0392 -0.0109812 -2.69458e-20)
(10.0414 -0.0308654 -1.91599e-22)
(10.0335 -0.0353864 -6.28832e-21)
(10.0237 -0.0376729 -2.91152e-20)
(8.65197 0.0442881 -4.48611e-20)
(9.83378 0.103528 1.29698e-20)
(10.3641 0.0416138 -1.30687e-20)
(10.3117 0.022678 1.04317e-21)
(10.1779 0.0168196 4.74526e-21)
(10.1679 0.0100071 2.83497e-21)
(10.1714 0.00907153 9.34433e-21)
(10.1591 0.0225971 -2.55979e-21)
(10.17 0.0231655 2.82294e-21)
(10.1703 0.0206171 0)
(10.1676 0.0223323 -9.10059e-21)
(10.1674 0.0134747 -1.04481e-20)
(10.1678 0.0161212 0)
(10.1736 0.00194328 -2.25498e-20)
(10.1722 0.00572989 -1.12628e-20)
(10.1733 -0.00329977 4.96749e-20)
(10.1709 -0.00945909 -1.85348e-20)
(10.1811 -0.0231472 -1.13894e-20)
(10.1951 -0.0411516 4.78665e-20)
(10.1378 -0.00203552 -4.80733e-21)
(10.1416 -0.00475212 8.92304e-21)
(10.1632 -0.0128257 2.2323e-21)
(10.1506 -0.0086485 6.59395e-21)
(10.1495 -0.00850784 0)
(10.153 -0.0103056 1.78261e-21)
(10.1584 -0.0107082 9.94212e-23)
(10.1539 -0.0103399 0)
(10.1536 -0.0178197 -1.83349e-21)
(10.1495 -0.0180192 -1.5559e-21)
(10.2878 -0.00592468 1.35496e-21)
(10.0371 -0.0552169 3.2394e-20)
(10.0008 0.00226642 -1.47035e-20)
(10.0003 -0.00386092 0)
(10.0021 -0.0120459 3.14053e-20)
(10.0143 -0.0363961 -6.99861e-21)
(10.0068 -0.0331687 0)
(10.0036 -0.0233766 1.04669e-20)
(10.2207 -0.0690894 -5.43898e-20)
(10.1206 -0.0105229 5.43694e-23)
(10.1008 -0.0129397 0)
(10.1302 -0.0240824 -5.99173e-21)
(10.1345 -0.0432589 -1.15202e-21)
(10.0575 -0.010083 0)
(10.0784 -0.00945773 0)
(10.1675 -0.0701206 1.4581e-20)
(10.148 -0.055194 -2.93449e-22)
(10.051 -0.0260754 1.0378e-19)
(10.0433 -0.0388996 4.96572e-20)
(10.0332 -0.0448642 1.2697e-20)
(10.0211 -0.0446421 0)
(8.45733 -0.00196053 3.56754e-20)
(9.41747 0.108957 0)
(10.2836 0.0579924 1.03818e-21)
(10.3183 0.0251918 -1.20789e-21)
(10.1959 0.0181071 6.33603e-21)
(10.1722 0.0124986 1.20615e-20)
(10.177 0.010228 0)
(10.1604 0.0241019 3.90595e-21)
(10.1718 0.0254219 -8.25936e-22)
(10.1732 0.0234593 -3.56417e-21)
(10.1721 0.0251141 -1.69262e-21)
(10.1729 0.0168227 2.04116e-22)
(10.1839 0.00153028 -1.30357e-20)
(10.1807 0.00643188 1.46218e-20)
(10.1855 -0.00516271 1.35474e-20)
(10.1849 -0.01346 -1.22849e-20)
(10.201 -0.026956 -4.79263e-20)
(10.228 -0.0455803 3.4086e-24)
(10.1416 -0.00257649 -2.67138e-21)
(10.151 -0.0071739 -2.9453e-20)
(10.1463 -0.00598813 1.84865e-20)
(10.1726 -0.0182973 -2.10596e-21)
(10.1648 -0.0129057 -6.38393e-22)
(10.1547 -0.0110913 -1.69118e-21)
(10.1565 -0.0118349 0)
(10.1597 -0.0112399 1.30384e-21)
(10.1569 -0.0120241 8.49079e-21)
(10.1589 -0.0128621 0)
(9.66487 -0.0878005 -8.21303e-20)
(9.38428 -0.0905865 1.47295e-20)
(10.1402 -0.00816749 0)
(10.3265 0.00276889 5.35891e-21)
(10.0004 0.00279356 1.43916e-19)
(10.0022 0.0084452 -1.37241e-19)
(10.0046 0.00103771 0)
(10.0003 -0.00457051 -1.95995e-20)
(10.0014 -0.0137974 7.17963e-20)
(10.0115 -0.0425343 5.9169e-21)
(10.0038 -0.0352195 0)
(10.0013 -0.0245379 -1.65422e-19)
(10.2051 -0.0912938 5.43638e-20)
(10.2663 -0.0674001 2.28045e-20)
(10.1189 -0.0326516 -2.7139e-21)
(10.1015 -0.0267132 0)
(10.1186 -0.0514654 4.4898e-21)
(10.082 -0.0232789 0)
(10.065 -0.0273004 -8.6725e-20)
(10.147 -0.0803465 1.58606e-20)
(10.1315 -0.0602032 4.18696e-21)
(10.0554 -0.0402258 -2.00268e-20)
(10.0446 -0.0518566 -1.16821e-20)
(10.0301 -0.0532999 4.03054e-20)
(10.0165 -0.0520264 -3.82586e-20)
(8.16081 -0.0231643 5.05871e-21)
(9.11405 0.0769323 3.32045e-21)
(9.05078 -0.0677659 6.78069e-21)
(10.2357 0.0382697 -2.33192e-21)
(10.3408 0.0272963 2.15707e-21)
(10.2081 0.0225586 -2.4202e-21)
(10.1787 0.0164835 0)
(10.1848 0.0145559 -1.95157e-20)
(10.1621 0.0273334 -4.61866e-21)
(10.1736 0.0282454 7.70757e-21)
(10.1779 0.0266325 1.51677e-21)
(10.1772 0.0273318 1.11722e-20)
(10.1908 0.0105979 1.95093e-20)
(10.1962 0.00463762 0)
(10.2005 -0.00371246 0)
(10.2024 -0.0143309 0)
(10.2291 -0.0241487 0)
(10.2668 -0.0398311 -4.70882e-20)
(10.3057 -0.0633898 -7.36528e-20)
(10.1458 -0.00304335 2.67125e-21)
(10.1519 -0.00552308 8.23506e-21)
(10.1666 -0.013751 2.30873e-21)
(10.1658 -0.0139376 1.75392e-22)
(10.1611 -0.0122733 -1.56622e-21)
(10.1627 -0.0135252 -1.82594e-21)
(10.165 -0.0149107 0)
(10.1586 -0.0117224 0)
(10.1617 -0.0138056 0)
(10.1705 -0.00446776 0)
(10.3662 -0.0137471 3.9919e-20)
(10.2982 -0.029513 -3.02689e-20)
(10.0006 0.00484183 3.59099e-20)
(10.0023 0.0108638 -2.80898e-20)
(10.0049 0.0140308 -6.99179e-20)
(10.0137 0.00793744 0)
(10.0073 0.0109466 0)
(9.99993 -0.00490108 5.48455e-21)
(10.001 -0.0154269 4.30299e-20)
(10.0078 -0.0459639 -1.27536e-21)
(10.0002 -0.0396327 -2.96304e-20)
(9.99941 -0.030141 2.68043e-19)
(10.1823 -0.107156 1.50427e-22)
(10.2517 -0.0954115 4.59811e-20)
(10.3318 -0.104481 -7.23286e-20)
(10.0714 -0.0447457 -6.48934e-20)
(10.1023 -0.0508242 2.04352e-20)
(10.0892 -0.0406184 2.96587e-20)
(10.125 -0.0862211 0)
(10.1146 -0.0631119 -1.94585e-21)
(10.0586 -0.0588236 -1.60957e-20)
(10.0414 -0.0623327 -4.43473e-20)
(10.0231 -0.0623617 2.24775e-20)
(10.0111 -0.0568734 -1.42089e-20)
(10.3284 -0.0677783 0)
(8.03799 -0.0144631 -4.75506e-21)
(8.96732 0.0593992 2.26195e-21)
(8.85636 -0.0372711 -5.1589e-21)
(10.2085 0.0304485 7.21266e-22)
(10.3522 0.0291112 -7.23727e-22)
(10.2156 0.0308045 0)
(10.1841 0.0284745 0)
(10.1922 0.0277721 2.00604e-20)
(10.1773 0.0321383 0)
(10.1639 0.0352937 -8.00371e-23)
(10.1836 0.0299109 -1.47255e-21)
(10.201 0.0245116 -2.00487e-20)
(10.21 0.0182356 0)
(10.2187 0.00815247 0)
(10.2256 -0.00593449 0)
(10.2611 -0.0151236 0)
(10.2944 -0.0339351 3.68168e-20)
(10.3372 -0.048591 2.15106e-19)
(10.3657 -0.0675895 1.72874e-20)
(10.1492 -0.00212724 0)
(10.1556 -0.00581692 -8.33639e-21)
(10.1675 -0.013178 0)
(10.1666 -0.0146847 5.88805e-21)
(10.1676 -0.01701 -1.54114e-20)
(10.168 -0.0192289 4.70958e-21)
(10.1679 -0.01667 -1.60977e-20)
(10.1626 -0.0123263 2.59344e-21)
(10.1643 -0.0135594 0)
(10.167 -0.017726 2.37677e-20)
(10.1791 -0.0113268 0)
(10.2687 0.0176654 1.65575e-20)
(10.0006 0.00602313 -6.63662e-20)
(10.024 0.00792268 2.02473e-20)
(10.0034 0.0164444 0)
(10.0063 0.020435 -1.19887e-21)
(10.0114 0.0147339 5.69474e-20)
(9.99982 -0.00455075 0)
(9.99906 -0.0147622 -4.78935e-20)
(10.0024 -0.0501889 3.29369e-20)
(9.99526 -0.0388634 0)
(9.99592 -0.0297384 0)
(9.99822 -0.0211594 -1.81798e-21)
(10.1556 -0.117075 -1.86055e-21)
(10.3757 -0.143243 1.01195e-19)
(10.2208 -0.121511 -2.32095e-21)
(10.2941 -0.132133 -7.4315e-20)
(10.105 -0.087687 5.36435e-20)
(10.0759 -0.0604684 0)
(10.0949 -0.0660248 -2.41768e-20)
(10.0558 -0.0714691 0)
(10.0311 -0.0740431 4.97525e-21)
(10.0152 -0.069444 4.29464e-20)
(10.0038 -0.0620492 -1.7148e-20)
(10.2778 -0.044147 0)
(7.97168 -0.0142827 2.82212e-21)
(8.87354 0.0583616 -3.67615e-21)
(8.77234 -0.0338063 -7.60508e-22)
(10.1707 0.0248094 9.35043e-22)
(10.3547 0.0321654 1.26037e-21)
(10.2176 0.0455129 6.09874e-22)
(10.2025 0.0342561 2.18829e-20)
(10.1921 0.0326822 -1.06424e-20)
(10.184 0.0375202 1.2838e-21)
(10.1676 0.0486866 -1.38078e-21)
(10.2142 0.0323616 -2.8873e-20)
(10.2268 0.0271632 1.71391e-20)
(10.2517 0.00459596 0)
(10.2397 0.0185357 0)
(10.2846 -0.00719042 -1.31585e-20)
(10.3523 -0.00679644 7.8239e-20)
(10.3227 -0.0105126 0)
(10.3868 -0.0273247 -2.17925e-19)
(10.4095 -0.0981506 -1.39791e-19)
(10.1534 -0.00199416 4.57367e-21)
(10.1592 -0.005401 -2.47583e-21)
(10.1663 -0.0119435 1.78738e-20)
(10.1676 -0.0190228 4.09341e-21)
(10.1708 -0.0178559 1.33818e-20)
(10.1709 -0.0223883 -1.94396e-21)
(10.1721 -0.0177078 3.79263e-22)
(10.1683 -0.0143643 -2.1985e-21)
(10.1693 -0.0195411 8.63755e-21)
(10.1625 -0.0250327 0)
(10.243 -0.0113522 -2.6145e-22)
(10.0002 0.0057564 -4.06292e-20)
(10.0016 0.0153373 8.29563e-20)
(10.0388 0.00743857 -2.93709e-20)
(10.0282 0.0195776 -5.34842e-20)
(10.0054 0.023243 3.27398e-20)
(10.0107 0.0237568 -2.45644e-20)
(10.0205 0.0216447 5.22411e-20)
(9.99812 -0.0115508 0)
(9.99964 -0.00370466 0)
(9.99563 -0.0495911 -1.67618e-20)
(9.99021 -0.0373699 -5.57177e-20)
(9.99263 -0.0285493 1.70703e-20)
(9.99557 -0.0198524 1.8598e-21)
(10.1294 -0.120832 -1.74432e-20)
(10.4297 -0.194477 -1.74378e-19)
(10.1871 -0.141246 -4.67357e-21)
(10.3357 -0.183371 2.66107e-20)
(10.2545 -0.170417 3.02858e-20)
(10.0896 -0.0917608 -4.33916e-20)
(10.0717 -0.0773363 -1.29999e-20)
(10.106 -0.120126 2.37857e-20)
(10.0438 -0.0869504 -7.22255e-20)
(10.0215 -0.0847355 0)
(10.0055 -0.076234 -1.33756e-20)
(9.99428 -0.0625246 -3.5941e-21)
(10.3034 -0.0456783 5.32707e-22)
(7.93227 -0.0224406 0)
(8.78239 0.0616084 1.11706e-21)
(8.69497 -0.0299488 0)
(10.1348 0.0194288 -1.3117e-21)
(10.3542 0.0365267 -5.83677e-22)
(10.2088 0.0612088 7.81621e-23)
(10.2077 0.0498796 0)
(10.1942 0.0438914 9.02868e-22)
(10.1761 0.0610208 1.59353e-20)
(10.2256 0.0439414 0)
(10.2399 0.0380004 3.38932e-20)
(10.2713 0.0132971 -4.40397e-21)
(10.256 0.0289592 -3.89979e-20)
(10.3098 0.00226737 -2.54796e-21)
(10.3587 0.0308465 9.68456e-20)
(10.3963 0.00744963 -4.45687e-20)
(10.4345 -0.0478747 1.62709e-19)
(10.4674 -0.138378 4.00247e-20)
(10.157 -0.0018774 0)
(10.1639 -0.00512277 0)
(10.1708 -0.0110328 -2.42703e-20)
(10.1724 -0.0147336 6.47723e-22)
(10.1684 -0.0231196 -9.44245e-21)
(10.1721 -0.0205542 0)
(10.1739 -0.0264494 -2.41156e-21)
(10.1746 -0.0191681 -3.81947e-21)
(10.1736 -0.0204027 3.51414e-21)
(10.169 -0.0270824 4.33364e-21)
(10.2607 -0.0136561 1.12721e-22)
(10.0001 0.0043366 3.33707e-20)
(10.0004 0.0131135 8.38177e-20)
(10.0018 0.0206531 -1.2257e-19)
(10.0037 0.024547 -4.44598e-20)
(10.057 0.0073376 0)
(10.0413 0.0194835 3.42453e-20)
(10.0335 0.0301904 -4.13108e-20)
(10.0089 0.0291006 -1.43382e-20)
(10.0168 0.0302442 0)
(10.0272 0.0311032 -8.78606e-20)
(10.0774 0.00695331 -4.2703e-21)
(9.99704 -0.00805056 5.01432e-20)
(9.99954 -0.0022928 0)
(9.99985 0.00369598 0)
(9.98795 -0.047329 -2.07329e-20)
(9.98541 -0.0315902 4.3929e-20)
(9.99237 -0.015434 -5.404e-20)
(9.98821 -0.0235107 0)
(10.1493 -0.155273 8.59812e-24)
(10.3835 -0.243615 1.50396e-20)
(10.2114 -0.194173 5.91314e-21)
(10.2897 -0.220056 3.13171e-22)
(10.0817 -0.11574 3.29382e-20)
(10.0606 -0.0989175 5.9684e-20)
(10.1123 -0.160273 0)
(9.98327 -0.0602472 4.4027e-20)
(10.0332 -0.103695 -7.75503e-22)
(10.0094 -0.0952426 0)
(9.99235 -0.0781887 -1.65512e-20)
(10.2868 -0.0421491 -8.73054e-23)
(7.90013 -0.0266322 4.52659e-22)
(8.69869 0.0681033 -6.95069e-22)
(8.64875 -0.0268951 -1.24955e-21)
(10.2082 0.0708708 0)
(10.1219 0.00704915 1.14798e-22)
(10.3479 0.0396347 -8.12795e-23)
(10.2063 0.0673031 -2.34852e-20)
(10.1901 0.0704518 3.65541e-21)
(10.2487 0.062804 -7.7042e-21)
(10.2332 0.0612562 2.86371e-20)
(10.2906 0.037334 -5.52372e-20)
(10.3239 0.0460271 -1.01177e-19)
(10.2712 0.040749 7.21354e-20)
(10.3827 0.0483869 0)
(10.4462 0.00866536 9.75439e-20)
(10.4959 -0.0759417 0)
(10.1591 -0.00160718 4.30712e-21)
(10.1713 -0.00412429 4.45315e-20)
(10.1755 -0.00928174 0)
(10.1774 -0.0144118 -3.7649e-22)
(10.1783 -0.0210642 -1.04955e-20)
(10.1698 -0.0294019 0)
(10.1746 -0.0226195 0)
(10.1776 -0.0295845 -3.53416e-22)
(10.1794 -0.0213508 1.01771e-20)
(10.1701 -0.0342261 1.11049e-21)
(10.2637 -0.0191979 -1.05509e-21)
(10.1563 0.000498566 -5.24069e-21)
(10.1517 0.00160784 0)
(9.99937 0.0130705 1.34873e-20)
(9.99925 0.0213918 0)
(10.0029 0.0287732 4.66939e-20)
(10.0068 0.0324856 1.43789e-20)
(10.0576 0.020375 0)
(10.0441 0.0315153 5.7484e-20)
(10.0345 0.0369053 3.79218e-21)
(10.0144 0.0367314 0)
(10.0243 0.0380354 0)
(10.0758 0.0219171 -4.7632e-22)
(10.0983 0.00594264 -4.13066e-21)
(10.1178 0.00348908 0)
(10.1334 0.000149339 4.61209e-20)
(10.1468 0.00504464 -4.57153e-20)
(9.99927 0.000634305 0)
(9.99571 -0.00264209 0)
(9.99966 0.00198797 0)
(9.99823 0.0115162 0)
(9.97161 -0.0514695 -2.15662e-20)
(9.98003 -0.0395396 5.48332e-20)
(9.98185 -0.0249655 0)
(9.98895 -0.00928078 5.35091e-20)
(10.1641 -0.213853 1.99056e-20)
(10.3306 -0.287064 2.33603e-20)
(10.2387 -0.251822 -2.14992e-20)
(10.0514 -0.123403 2.82087e-21)
(10.0774 -0.139365 -6.26994e-22)
(10.0969 -0.19179 1.03995e-20)
(10.1189 -0.229881 -3.59024e-20)
(9.96075 -0.0655826 0)
(9.97674 -0.0760378 -2.64415e-21)
(10.0186 -0.118602 0)
(9.99124 -0.0998448 0)
(10.3061 -0.0435537 0)
(8.60761 0.0738063 -1.72848e-22)
(7.85603 -0.0309056 -2.52178e-22)
(8.71528 -0.0394441 -1.01527e-20)
(10.3332 0.0514031 0)
(10.1663 -0.00310763 -4.32337e-21)
(10.2188 0.0957162 -4.00336e-21)
(10.2414 0.0727181 -1.42119e-20)
(10.3203 0.0856118 0)
(10.2789 0.0801841 0)
(10.3615 0.0805516 -3.92501e-20)
(10.4432 0.0642785 4.59393e-21)
(10.5128 -0.00722503 2.49182e-20)
(10.1693 0.000860799 -5.32156e-20)
(10.1803 -0.00709351 0)
(10.1829 -0.0128557 1.44185e-20)
(10.1842 -0.0208702 3.77513e-22)
(10.1847 -0.0231067 1.82348e-21)
(10.1725 -0.0367615 -1.15752e-21)
(10.1785 -0.0255519 1.53021e-21)
(10.1826 -0.0324813 0)
(10.2663 -0.0251418 2.97951e-22)
(10.1719 -0.0416387 -7.31161e-22)
(10.1568 0.0133385 2.21653e-20)
(10.1669 0.00522214 8.69725e-21)
(10.1612 0.0098418 -2.83024e-21)
(9.99798 0.0212351 1.64318e-20)
(9.99972 0.0292952 -3.19667e-20)
(10.005 0.0372211 -1.6144e-20)
(10.0118 0.0417045 1.36998e-20)
(10.0586 0.0335609 0)
(10.0451 0.040967 2.21926e-20)
(10.0334 0.0450307 -3.58743e-21)
(10.0219 0.0456707 1.12345e-21)
(10.0746 0.0364194 -1.73637e-20)
(10.0962 0.0270876 1.4859e-20)
(10.0917 0.0378174 -7.68064e-21)
(10.1582 0.0227873 1.34661e-20)
(10.1155 0.0254727 -1.24399e-23)
(10.1475 0.0238568 -1.16075e-21)
(10.1332 0.0238468 3.99668e-21)
(9.99665 0.00850104 0)
(9.99262 0.00360617 0)
(9.99564 0.0196084 6.11125e-20)
(9.9854 0.00243305 -1.07262e-19)
(9.96078 -0.0417313 -5.67951e-20)
(9.97243 -0.0311498 2.55012e-20)
(9.98089 -0.0125427 1.70527e-20)
(9.94678 -0.0509421 0)
(10.1844 -0.276124 0)
(10.2717 -0.324366 1.52405e-20)
(10.0367 -0.155616 -2.34236e-20)
(10.0557 -0.21005 3.13966e-20)
(10.0613 -0.168734 3.0613e-20)
(10.0654 -0.248028 -1.58745e-20)
(10.1286 -0.29344 5.89825e-21)
(9.96897 -0.0962928 -4.4438e-20)
(9.94791 -0.0813678 5.28922e-20)
(9.99178 -0.129629 -3.85468e-20)
(10.3891 -0.0544103 2.71695e-21)
(8.51395 0.103532 8.97249e-21)
(7.78543 -0.0326885 -4.76255e-20)
(8.72368 -0.0980848 -5.93242e-21)
(10.3603 0.0609182 1.70813e-20)
(10.2567 0.0167742 -1.85891e-20)
(10.2521 0.108519 4.24312e-20)
(10.263 0.0818775 -2.32584e-20)
(10.3417 0.117994 1.85403e-19)
(10.4263 0.118226 3.13492e-19)
(10.5173 0.0633932 -2.36901e-19)
(10.1814 -0.00177292 0)
(10.1886 -0.0096015 -3.02346e-20)
(10.1911 -0.0191326 -1.08811e-22)
(10.1918 -0.0239504 -1.18395e-20)
(10.1893 -0.0342383 1.18737e-21)
(10.1781 -0.0446917 3.8698e-22)
(10.1844 -0.0294452 5.85622e-22)
(10.233 -0.0325801 -2.87266e-22)
(10.1693 -0.0499366 0)
(10.1672 0.0145937 0)
(10.1816 0.00470497 0)
(9.99304 0.0283384 1.02015e-19)
(9.99683 0.0297972 -1.68299e-20)
(10.001 0.0385806 4.9911e-20)
(10.0089 0.0477093 0)
(10.0193 0.0526483 -4.36286e-20)
(10.059 0.0454615 -6.5007e-21)
(10.0451 0.0510396 -1.46079e-21)
(10.0316 0.0546959 1.48763e-20)
(10.0744 0.0484757 1.10678e-20)
(10.0909 0.0553945 1.7352e-20)
(10.1066 0.0473753 -6.16615e-21)
(10.1684 0.0239618 5.92795e-21)
(10.1638 0.0307865 1.43451e-20)
(10.1218 0.0443141 1.12319e-21)
(10.1538 0.035059 -2.51414e-21)
(10.1396 0.0399768 -1.28563e-20)
(9.99257 0.0164921 5.81634e-20)
(9.98734 0.0117308 7.49541e-20)
(9.98909 0.0248807 -2.21283e-19)
(9.97702 0.000851468 -1.78258e-20)
(9.93091 -0.066758 1.64532e-20)
(9.95032 -0.0236121 -2.77453e-19)
(9.96443 -0.0122907 8.90229e-20)
(9.93411 -0.0260304 0)
(9.98671 0.0317106 4.4938e-20)
(10.2074 -0.352901 -3.59889e-21)
(9.99988 -0.170985 0)
(10.0114 -0.202531 6.72851e-20)
(10.0204 -0.249329 -3.90378e-20)
(10.0699 -0.303596 0)
(10.1383 -0.371314 -3.59144e-21)
(9.94631 -0.162139 -9.43314e-20)
(9.95317 -0.129239 3.22642e-20)
(9.92724 -0.119695 -1.34235e-19)
(10.4166 -0.095641 7.47746e-21)
(8.32342 0.22334 3.27824e-21)
(7.78358 -0.0421676 2.98736e-19)
(8.31877 -0.228055 -1.70307e-19)
(10.3276 0.149731 -2.00222e-21)
(10.2874 0.143042 -1.61579e-19)
(10.3539 0.148095 8.21736e-20)
(10.3952 0.167444 -1.85516e-19)
(10.5061 0.136331 -7.82425e-21)
(10.1937 -0.00420997 1.59147e-20)
(10.1984 -0.0150421 -3.40648e-23)
(10.2006 -0.0227662 1.69183e-20)
(10.1986 -0.0345466 -1.12473e-21)
(10.1849 -0.0540623 -7.51959e-22)
(10.1927 -0.0333427 1.85722e-21)
(10.2111 -0.0520032 1.62651e-22)
(10.1762 -0.0604941 2.00667e-20)
(10.1818 0.0133009 0)
(10.1974 0.00372264 -1.8156e-20)
(9.99125 0.037088 -3.7212e-20)
(9.9965 0.0391335 -3.33463e-20)
(10.0037 0.0512547 0)
(10.0162 0.0614305 -2.78319e-20)
(10.0295 0.0631404 1.58956e-20)
(10.0593 0.0565703 6.24933e-21)
(10.0439 0.0635593 0)
(10.0759 0.0615573 -3.12383e-21)
(10.0945 0.0631625 -1.74885e-21)
(10.1133 0.062734 4.49923e-21)
(10.1812 0.0243662 -1.03477e-20)
(10.1752 0.0349621 0)
(10.1314 0.0589208 -5.11985e-22)
(10.1642 0.0447201 -1.05668e-21)
(10.1492 0.052588 -7.13407e-21)
(9.97908 0.0114792 -3.24848e-20)