/*--------------------------------*- C++ -*----------------------------------*\
  =========                 |
  \\      /  F ield         | OpenFOAM: The Open Source CFD Toolbox
   \\    /   O peration     | Website:  https://openfoam.org
    \\  /    A nd           | Version:  8
     \\/     M anipulation  |
\*---------------------------------------------------------------------------*/
FoamFile
{
    version     2.0;
    format      ascii;
    class       volScalarField;
    location    "0.07";
    object      p;
}
// * * * * * * * * * * * * * * * * * * * * * * * * * * * * * * * * * * * * * //

dimensions      [0 2 -2 0 0 0 0];

internalField   nonuniform List<scalar> 
656
(
3.21449e-07
-0.235415
1.7286
-0.786699
0.189109
1.73123
-1.15106
-1.55284
2.055
1.70641
1.76606
-0.438536
0.38613
1.74772
2.03451
2.2592
1.63658
1.58731
2.26848
2.39139
1.8021
1.82117
1.78639
1.81791
-0.0678276
0.616182
1.77439
2.01726
2.25044
1.84381
1.86661
2.55673
2.39636
2.38638
2.55444
2.69
2.15653
2.17263
2.13723
1.78223
1.85334
0.28047
0.818513
1.80944
2.00692
2.24338
2.18686
2.19942
2.86033
2.69083
2.55898
2.38211
2.55204
2.68875
2.86082
3.0275
2.16146
2.17584
2.1874
2.12038
2.14579
1.82908
2.00077
2.23605
2.19767
2.20649
3.02632
2.85841
2.69132
3.34493
2.3775
2.54909
2.68637
2.8597
3.02737
2.18271
2.19278
2.19459
2.19411
1.98959
2.22566
2.1934
2.19286
3.61245
3.34062
3.02253
2.85603
3.34546
3.56246
4.8166
2.3692
2.54658
2.68238
2.85996
3.02871
2.09324
2.08871
2.09004
2.09221
2.09409
2.09546
5.39497
5.07755
3.65359
3.32841
3.01718
3.35161
3.52784
4.58587
5.00428
2.11806
2.10182
2.0935
2.08716
2.08104
2.0756
3.46393
5.83363
5.30379
3.68493
3.31174
3.39808
2.13835
2.126
2.11485
2.10558
2.09739
2.09021
3.53792
3.5492
6.25266
5.51765
3.70233
3.53239
2.22632
2.21167
2.1991
2.18876
2.17966
2.17175
3.18936
3.54078
3.65147
6.69745
5.77318
3.19318
2.32623
2.3137
2.30164
2.29134
2.28245
2.27496
3.12263
3.18754
3.53832
3.76316
7.19328
3.13344
3.07483
2.4077
2.40833
2.4021
2.3908
2.37921
2.36946
3.06623
3.11261
3.18554
3.52848
3.85139
3.0701
2.47132
2.50101
2.49434
2.47746
3.06513
3.05742
3.10333
3.1814
3.51423
3.07078
3.18823
2.31762
2.30554
3.08445
3.06813
3.05918
3.04997
3.0934
3.17533
3.15789
3.19269
3.21531
3.09291
3.08364
3.06482
3.05429
3.04295
3.08389
3.13689
3.15955
3.19725
3.21652
3.33986
3.09804
3.09264
3.08252
3.06245
3.04997
3.0366
3.12371
3.13689
3.16018
3.20036
3.22876
3.38693
3.10057
3.09839
3.09283
3.08204
3.06057
3.04622
3.1159
3.12322
3.13649
3.16004
3.20222
3.23963
3.09868
3.10081
3.09881
3.09311
3.08183
3.05898
3.11152
3.11515
3.12248
3.13575
3.15963
3.2031
3.10101
3.09839
3.10098
3.09926
3.09351
3.08169
3.11424
3.11114
3.11438
3.12171
3.13494
3.15923
3.1035
3.10073
3.09829
3.10108
3.0997
3.09389
3.10749
3.1104
3.11455
3.11085
3.1137
3.12094
3.13429
3.10335
3.10044
3.09825
3.10115
3.10012
3.10758
3.11077
3.11468
3.11069
3.11309
3.12032
3.1032
3.10018
3.09824
3.10122
3.10767
3.1111
3.11474
3.11059
3.11253
3.10307
3.09995
3.09823
3.10774
3.11141
3.11477
3.11051
3.10296
3.09973
3.10781
3.11169
3.1148
3.10285
3.10787
3.11195
0.611872
0.921023
2.12091
2.05031
1.83001
1.80102
1.83257
1.36903
1.47457
1.26355
1.80882
1.85002
2.14479
2.14369
2.16541
2.16156
2.10572
2.08036
2.01317
1.95876
1.74479
1.56626
1.91247
1.84332
1.99339
1.99089
1.88165
2.10612
2.10791
2.14099
2.15624
2.16324
2.12634
2.08121
2.09202
2.00125
1.94344
2.13243
2.22599
2.11442
2.36213
2.27295
2.13648
2.07567
4.46956
4.70425
3.32631
2.5499
2.45666
3.17348
3.02228
2.68282
2.64617
2.96513
2.8655
2.80925
2.14183
2.11386
2.12915
2.17199
2.22536
2.21785
2.20871
2.20969
2.26271
2.16366
2.45113
2.39418
2.28199
2.29788
3.9684
3.53519
3.45027
3.98475
3.79614
3.42527
3.28035
3.30993
3.16905
2.6205
2.52745
3.08314
2.97608
2.88835
2.81517
2.74296
2.14561
2.16419
2.19144
2.24986
2.27616
2.34398
2.36881
2.56627
2.41773
2.36462
2.65328
2.4841
2.42296
3.6696
3.53954
3.48914
3.52738
3.44773
3.36963
3.2276
3.17437
3.05136
2.96042
2.87875
2.73929
2.70055
2.23577
2.25168
2.27589
2.36656
2.38525
2.43632
2.47435
2.58765
2.53957
2.80857
2.73291
2.59624
2.54056
3.18402
3.31863
3.32911
3.35971
3.27919
3.20678
3.11484
3.03136
2.89169
2.97756
2.91227
2.33685
2.55177
2.37803
2.39066
2.43921
2.45234
2.51737
2.85223
2.69174
2.73483
2.88257
2.59701
2.70577
2.67985
2.88288
3.12801
3.15298
3.00083
2.96645
3.08547
3.03096
3.19325
3.24013
3.21769
3.00976
2.98404
3.17393
3.02778
3.04245
2.42677
2.61962
2.53564
2.59434
2.47583
2.47893
2.51115
2.74684
2.81499
2.86857
2.92058
2.67822
2.75336
2.70904
2.91802
2.97932
3.03652
3.03243
3.09735
3.14433
3.12457
3.06824
3.06562
3.07229
3.05994
3.08176
3.12734
3.05153
3.07592
3.03792
3.07595
3.07691
3.09099
3.0734
3.06652
3.07113
2.55993
2.45322
2.52477
2.63815
2.6575
2.53152
2.54419
2.63086
2.94428
2.79783
2.8386
2.67714
2.79817
2.98254
2.96402
3.04149
3.07031
3.09722
3.14038
3.14494
3.20286
3.22704
3.22747
3.19776
3.16941
3.18966
3.14315
3.2032
3.18233
3.18554
3.14436
3.11848
3.10759
3.05705
3.09835
3.10036
3.12571
3.09695
3.07061
3.06113
3.06646
3.06333
3.06714
3.09311
3.23878
2.44962
2.33458
2.41672
2.56387
2.59296
2.67017
2.84041
2.82918
2.86794
3.11052
3.00033
3.00883
3.27078
3.16375
3.1412
3.30523
3.27935
3.36814
3.16555
3.13419
3.16562
3.15391
3.15736
3.08085
3.08245
3.13235
3.10818
3.11378
3.08886
3.06201
3.09259
3.09858
3.0873
3.09074
3.10224
3.37943
3.18473
3.06706
3.0238
3.02726
2.98073
2.77737
3.02487
3.32122
3.09142
3.09109
3.14632
3.13235
3.13896
3.12842
3.13777
3.09343
3.09131
3.12693
3.11504
3.10227
3.09168
3.10296
3.08922
3.54238
3.09772
3.09764
3.09743
3.09848
3.09951
3.10037
3.12716
3.11436
3.12568
3.12351
3.12478
3.09822
3.10539
3.10043
3.11334
3.11554
3.09937
3.10183
3.10022
3.10048
3.09943
3.10026
3.11775
3.11477
3.11619
3.1166
3.11621
3.10235
3.10476
3.10814
3.10972
3.11284
3.11173
3.10186
3.10301
3.10119
3.10177
3.11237
3.11225
3.1104
3.10533
3.10965
3.10718
3.11343
3.1121
3.10365
3.10515
3.10735
3.10991
3.10955
)
;

boundaryField
{
    movingWall
    {
        type            zeroGradient;
    }
    fixedWalls
    {
        type            zeroGradient;
    }
    frontAndBack
    {
        type            empty;
    }
    defaultFaces
    {
        type            empty;
    }
}


// ************************************************************************* //
