/*--------------------------------*- C++ -*----------------------------------*\
  =========                 |
  \\      /  F ield         | OpenFOAM: The Open Source CFD Toolbox
   \\    /   O peration     | Website:  https://openfoam.org
    \\  /    A nd           | Version:  8
     \\/     M anipulation  |
\*---------------------------------------------------------------------------*/
FoamFile
{
    version     2.0;
    format      ascii;
    class       surfaceScalarField;
    location    "0.005";
    object      phi;
}
// * * * * * * * * * * * * * * * * * * * * * * * * * * * * * * * * * * * * * //

dimensions      [0 3 -1 0 0 0 0];

internalField   nonuniform List<scalar> 
662
(
-1.46086e-05
1.06914e-05
3.91574e-06
1.33744e-05
-2.7983e-05
-5.88643e-05
2.63604e-05
4.31953e-05
-1.13884e-05
1.53041e-05
-9.80984e-05
5.26085e-05
7.30696e-06
-3.529e-05
6.18782e-05
-4.69061e-05
-1.43647e-05
2.96689e-05
-0.000117637
2.68451e-05
1.65771e-06
-3.69477e-05
9.69858e-07
-8.34397e-05
-2.35136e-06
8.48212e-05
-2.45011e-05
2.5471e-05
0.000104666
-5.71528e-05
3.7877e-05
-8.2081e-06
-0.000121102
5.1231e-06
-7.26863e-07
-3.62208e-05
8.5765e-07
-7.99582e-05
-4.33917e-06
-2.36434e-05
4.02002e-05
-2.32328e-06
0.000126104
-2.9646e-05
-0.000119252
-2.57733e-06
-2.27683e-06
-3.3944e-05
2.72798e-06
-7.04917e-05
-1.21944e-05
-2.09154e-05
4.04767e-05
-2.76449e-07
0.00013121
-7.4289e-06
-6.38406e-07
8.53354e-05
-8.55044e-05
8.07469e-07
2.51047e-05
-2.57431e-05
-0.000114185
-7.3432e-06
-2.77379e-05
-6.20613e-06
-1.58327e-05
-1.19052e-05
-1.11767e-05
-4.65598e-06
3.38442e-06
-6.04148e-05
-1.34614e-05
-1.7531e-05
-0.000131648
-0.000765294
0.000896942
4.37278e-05
-3.25114e-06
7.46641e-05
-3.09363e-05
-5.69838e-05
0.000133214
-2.28046e-06
-6.04497e-07
8.25745e-05
3.36542e-06
2.45002e-05
-9.82584e-05
-2.21329e-05
-6.44487e-05
-4.57149e-05
-3.24249e-05
-4.32004e-05
1.46561e-05
-1.93121e-05
2.23276e-06
-5.3449e-05
-9.19854e-06
-1.52982e-05
-0.00034173
0.000680699
-0.00110426
-0.00093897
0.00183591
0.000149598
-1.96359e-05
0.000230682
-0.00011202
-0.000168031
-2.66838e-06
7.30696e-05
1.21732e-05
2.18319e-05
-7.70902e-05
5.93213e-05
1.72027e-05
-3.65148e-05
-3.2459e-08
-2.0905e-07
-5.32075e-05
-1.53307e-05
0.00128205
-0.00154032
-9.31472e-05
0.00192906
-3.11803e-06
6.2991e-05
1.31966e-05
1.87139e-05
-0.000125733
6.58454e-05
-4.48474e-05
8.33259e-06
0.00149777
-0.000308869
0.0019575
-2.84443e-05
-2.217e-06
5.30904e-05
1.21176e-05
1.64969e-05
-4.71972e-05
2.34974e-06
-0.000146846
2.94457e-05
0.00195647
1.03364e-06
0.0015797
-0.000110376
-5.29841e-06
2.74725e-05
3.09163e-05
1.11985e-05
-4.73093e-05
1.12101e-07
-0.000152057
7.56078e-06
-4.87459e-07
-7.69296e-05
7.44421e-05
2.97498e-06
-2.25464e-05
2.20589e-05
0.00192799
2.84759e-05
0.00160382
-2.30905e-05
-0.00179009
0.000947171
0.000842922
-4.85107e-05
1.20145e-06
0.00188472
4.32705e-05
0.00185043
3.42887e-05
6.03412e-05
0.000142607
0.000804564
8.12908e-05
6.13163e-05
3.27801e-05
-0.000154052
2.10686e-06
-3.09037e-07
-7.73381e-05
7.17491e-07
-2.28554e-05
0.00158921
4.30937e-05
-0.000189199
-8.00544e-06
4.25586e-05
0.000154646
-0.00129221
0.000750596
0.00138454
-0.000165819
1.2969e-05
0.00155065
8.18265e-05
0.00147493
0.000110009
0.000243059
0.000352255
0.00120291
0.000247161
0.00016641
0.000114122
2.31166e-07
-7.5702e-05
-1.86728e-06
-2.26242e-05
-0.000196415
-1.51342e-06
8.72955e-06
-5.7525e-05
4.95196e-05
6.05231e-07
-7.34075e-05
-2.89971e-06
-2.20189e-05
-0.000178961
5.17919e-06
-2.26328e-05
-5.90384e-05
1.1482e-06
-6.56332e-05
-8.92251e-06
-2.08707e-05
-0.000154887
7.84072e-06
-3.19145e-05
-5.38592e-05
7.27293e-06
-3.76145e-05
-3.52916e-05
-1.35977e-05
-0.000138393
4.69731e-06
-2.11914e-05
-4.60185e-05
3.79595e-06
-1.98956e-05
-0.000122294
-4.13212e-05
-3.75252e-05
0.000305542
-0.000252934
-9.22017e-05
0.000135397
0.000213341
8.84908e-05
-0.000588289
0.000326459
0.000261829
-0.000329914
-0.000258375
-0.000421503
0.000232527
0.000188976
-9.50438e-05
-0.000468219
0.000138306
-7.72201e-05
-0.000390999
-0.000239043
0.000161823
0.000127242
-0.000380176
-0.000370447
0.000497689
-0.000628822
1.84741e-05
-0.000409473
-0.000610348
-0.000353331
-6.26988e-05
-0.000346775
-0.000241395
-0.000304094
-0.000243803
0.000332293
-0.000467227
0.000729056
-3.04621e-05
6.85994e-05
0.000660457
0.000301126
0.000275141
6.07876e-05
0.000240339
0.000270863
-8.18866e-05
0.000331651
-0.000315378
0.000233491
-0.000410421
-0.000272116
-0.000110292
2.5471e-05
0.000139292
-0.000492623
-0.000471055
-0.00081783
-0.0004875
-3.29319e-05
-0.000784898
-0.000308433
-0.000341365
-0.000143751
0.000418892
0.000516706
0.000757044
0.000389246
0.000142689
0.000614355
0.000255388
7.62629e-05
0.000398077
0.000122243
0.000111248
0.000198506
2.57431e-05
7.62472e-05
-0.000563747
-0.000708651
-0.000566325
1.82608e-05
-0.000726912
-0.000353559
-0.000335298
-0.00011404
0.000503286
0.000500315
0.000495857
0.000271692
0.000126385
0.000772007
0.000199314
0.000325699
-3.56548e-07
-0.000565968
-0.000727268
-0.000573311
-0.000761636
3.43675e-05
-0.000486479
-0.000275157
-0.00034876
-0.000314392
0.000486447
9.41041e-06
0.000484166
0.000783971
-1.19648e-05
0.000793382
0.000329064
0.000317099
-0.000206011
-0.000367301
-0.000692489
-0.000558934
-0.000133556
-0.000389434
-0.000236657
-0.000322277
0.000242934
-0.00037649
-0.000437584
0.000162428
-0.00019465
-0.000323591
-0.000161163
0.000570878
-8.67113e-05
0.000551242
0.000842903
-4.95212e-05
0.000756192
0.000329273
0.000279751
0.000196274
-0.000292407
9.6133e-05
-0.000180215
-0.000416872
-8.76681e-05
-0.000204739
0.000215665
-0.00026138
-0.000173769
-0.000496046
3.27885e-05
-0.000528834
-0.000384083
-8.59889e-05
-0.000175391
-0.000129189
-6.9868e-05
-0.000254414
5.97641e-05
-0.000158281
-0.000161372
-0.000101608
-0.000105583
-5.26984e-05
-0.000193251
-8.72849e-05
-0.000105966
0.00114272
-0.00131075
0.00190876
-0.00076604
0.000804501
-0.000735816
0.000595733
-4.4491e-05
0.000483713
-0.000827042
-0.000509288
0.000464797
0.000802267
-4.6075e-05
0.000292979
0.000292948
0.000246873
0.000170126
-0.000997167
0.00102076
-0.00085063
0.000311312
-0.000398597
-0.000106573
-0.00027751
6.16849e-05
-0.000237076
0.000467149
-0.00074466
-0.000306944
-0.000274072
-0.000124525
-0.000241099
-0.000336987
6.2915e-05
1.08333e-05
-0.00034782
-0.000170146
6.85381e-05
-0.000222845
0.000328811
-0.000265896
-1.53307e-05
-0.00218788
0.00142183
-0.00116712
0.000686019
-0.000637465
-0.000529655
0.000377149
0.000740791
-0.000275995
-0.000256376
0.00039329
-0.000100311
0.000117296
0.000258991
0.00015868
0.000713089
-0.000145145
-0.000567944
-0.000323654
-0.000526976
-0.000961118
-0.000248029
8.83657e-05
-0.000344742
-0.000438611
-0.000507061
-0.000237599
-0.000631586
-0.000620753
-0.000478698
-0.000449252
-4.81354e-05
-0.000572618
-0.000312384
-3.54363e-05
-0.000360519
-0.000169395
-9.6501e-05
-0.000204831
-2.20589e-05
-0.00103954
0.000509889
-0.00118469
0.000887039
0.000776663
-0.000336299
-0.00084839
0.000618327
-0.000954626
0.000274209
-0.000156913
-7.05331e-05
0.000882706
-0.000264379
0.000314762
0.000186152
2.92391e-05
0.00040297
-8.82079e-05
0.000154941
0.000110156
-0.000180689
-0.000328454
-0.000173514
-0.000431271
0.000166892
-8.66887e-05
-0.000485929
-0.00053594
-0.00052838
-0.000271495
-8.90245e-05
-0.000757424
-0.000201856
-0.000290881
0.00011021
-0.0009586
0.000886873
0.000863782
-0.00056567
-0.000388957
-0.00152427
-0.000388712
-0.000777669
7.13539e-05
-4.21148e-05
-0.000109335
-0.000282849
0.000371057
-0.000204165
1.11985e-05
-4.95196e-05
-0.000569069
4.06892e-05
-0.000566962
-0.000735509
-2.19151e-05
-0.000694819
-0.000290163
-0.000312078
0.000829573
3.42096e-05
0.000872666
-0.00145943
-6.48368e-05
-0.00142522
-0.000768939
-0.000833776
0.000989027
0.000395509
0.00219193
-0.000564559
-2.40292e-06
-0.00055159
-0.000609917
-8.4902e-05
-0.00061232
-0.000313946
-0.000398848
0.000852472
2.01945e-05
0.000934299
-0.00157433
0.000149106
-0.00155414
-0.000856409
-0.000707302
0.000771378
-0.000528318
0.00116689
-0.00060565
5.40598e-05
-0.000491528
0.000872665
6.16338e-05
0.000982674
0.000454356
-0.00147546
0.000983933
-0.000882883
0.00204977
-0.00130905
0.000764505
0.000219428
0.000527859
-0.000473799
-0.000741571
0.00012925
-0.000213712
-0.000401747
-0.000272497
0.000935681
-0.000874047
-0.00164562
9.14811e-05
-0.000709935
-0.000739217
-0.000647736
-0.000697617
0.00115197
0.00135215
0.000696883
6.76223e-05
0.000223084
-0.00129687
0.000422823
-0.000144898
0.000316817
0.00103534
0.000536245
0.000227203
0.000309042
0.000294825
-0.000391978
0.000178265
-0.000168894
-0.000281419
-0.000103154
-0.000940375
0.00023044
-0.000517552
-0.000668927
-0.000438487
-0.000806702
0.000661804
0.000228634
-0.000283318
0.000114424
1.15074e-05
-0.000751199
0.000233647
-8.93944e-05
-0.000177012
0.000188519
0.00013203
0.000360663
-0.000140769
-2.63446e-05
-0.000458383
-0.000224736
-0.000384554
0.000159819
-7.52339e-05
4.88893e-05
0.000113286
-0.000473949
-1.35977e-05
3.75252e-05
)
;

boundaryField
{
    movingWall
    {
        type            calculated;
        value           uniform 0;
    }
    fixedWalls
    {
        type            calculated;
        value           uniform 0;
    }
    frontAndBack
    {
        type            empty;
        value           nonuniform List<scalar> 0();
    }
    defaultFaces
    {
        type            empty;
        value           nonuniform List<scalar> 0();
    }
}


// ************************************************************************* //
