/*--------------------------------*- C++ -*----------------------------------*\
  =========                 |
  \\      /  F ield         | OpenFOAM: The Open Source CFD Toolbox
   \\    /   O peration     | Website:  https://openfoam.org
    \\  /    A nd           | Version:  8
     \\/     M anipulation  |
\*---------------------------------------------------------------------------*/
FoamFile
{
    version     2.0;
    format      ascii;
    class       surfaceScalarField;
    location    "0.005";
    object      phi;
}
// * * * * * * * * * * * * * * * * * * * * * * * * * * * * * * * * * * * * * //

dimensions      [0 3 -1 0 0 0 0];

internalField   nonuniform List<scalar> 
1107
(
0.00031486
-0.000637577
0.000628138
-0.000305421
0.000615843
-0.000300983
-2.76623e-05
0.000643505
0.000302274
0.000541279
-0.000100056
-0.000743498
-0.000952845
0.000617543
-8.75533e-05
0.000688029
0.000286685
-5.08262e-05
-1.42983e-05
-3.49551e-05
0.00067846
-3.82981e-05
1.64232e-05
-7.81811e-05
0.000167551
-0.000130576
-7.52731e-05
0.000293213
-0.00086916
-0.00123361
0.000573982
-0.000180258
0.000710248
0.000738985
-8.59109e-05
3.94896e-05
0.00078501
-8.55155e-05
4.0514e-06
-3.84544e-05
-1.02469e-05
0.00071795
0.000817596
2.83459e-05
-6.09309e-05
6.19419e-05
-0.000121272
-7.12455e-05
2.42544e-05
-4.04935e-05
0.000196085
-0.00011418
-0.000203178
0.000253675
-0.000132863
0.000280717
-0.000896201
-0.00144687
0.000493968
-0.000309369
0.000703092
0.000781065
-0.000156729
0.000834932
-0.000139382
5.05475e-06
-1.92548e-05
-5.19216e-06
-1.89809e-05
0.000827033
9.54381e-06
0.000746296
0.000870138
-9.61365e-05
0.000881993
-3.08361e-05
0.000872421
-2.25543e-05
3.21267e-05
2.86055e-05
-5.85343e-05
-4.13167e-05
1.1056e-05
-2.2944e-05
-6.76607e-05
-0.000105053
0.000271391
-0.000171302
-0.000303266
0.000355076
-0.000216548
0.000273859
-0.000814985
0.000383614
-0.00155662
-0.000466688
0.000651286
0.000794817
-0.000248453
0.000853729
-0.000198294
2.44899e-06
-1.06478e-05
-2.74317e-06
7.47723e-05
0.000845679
-4.80309e-05
0.000816474
-1.19958e-05
0.00075584
0.000890674
-0.000133082
0.000905136
-4.5298e-05
0.000897707
3.95562e-05
0.000871588
0.00010089
-9.64339e-05
0.00082826
0.000139762
4.55542e-05
-8.15939e-05
-3.1621e-05
2.2114e-05
-1.78766e-05
8.41324e-06
-9.24321e-06
-0.000103498
-0.000172858
-5.24161e-05
-0.000132676
0.000549053
-0.000632127
0.000762509
-0.000359675
0.000826477
-0.000262262
1.80412e-06
-4.03868e-06
-9.39047e-07
0.000807991
-5.87458e-05
0.000790943
-2.24994e-05
0.000743844
0.000747895
-0.000119673
0.000200038
0.000862394
-0.000169
0.000877643
-6.05463e-05
0.000874328
4.28714e-05
0.00085175
0.000123468
0.000803716
0.000187796
3.80865e-05
-2.78832e-05
-6.26195e-05
2.08751e-05
-1.44095e-05
1.00128e-05
-7.01425e-06
3.82811e-06
-3.05853e-06
0.000668599
-0.000479222
0.000733491
-0.000327154
8.15541e-07
-1.02612e-06
-1.23509e-07
0.000269283
0.000628911
-0.000150299
0.000750051
-6.17332e-05
0.000759204
-2.70075e-05
0.000721344
0.000702318
0.000301436
0.000550428
0.000421174
0.000353928
-0.00124936
0.00144586
0.000765058
-0.000200567
0.000781212
-7.67005e-05
0.000785926
3.81581e-05
0.00077062
0.000138774
0.000718433
0.000239983
-3.02861e-05
-4.73111e-05
4.9714e-05
-1.6767e-05
-2.79286e-05
-8.11991e-06
-1.56614e-05
-3.09915e-06
-8.0793e-06
-6.34604e-07
-3.49066e-06
-7.58114e-07
0.00103907
0.000289791
-0.000974932
0.000354424
-0.00097487
0.000666954
-6.72017e-05
0.000720964
-2.34925e-05
0.000694337
0.00060158
0.000418289
0.000429908
0.000592846
0.000346518
0.00152925
0.000391487
0.0009941
-4.19076e-05
-7.39797e-05
6.85762e-05
-2.32535e-05
-4.65827e-05
-1.12067e-05
-2.77082e-05
-4.22718e-06
-1.50588e-05
-8.6689e-07
-6.85095e-06
-1.625e-06
0.000137681
0.000230185
-7.80747e-05
0.000195965
-0.000816474
0.000350284
-0.0006582
0.000671923
-1.8161e-05
0.000670844
0.000305227
0.000223942
-2.63028e-05
-9.07154e-05
4.30386e-05
-1.47661e-05
-5.81194e-05
-7.24994e-06
-3.52244e-05
-2.81727e-06
-1.94915e-05
-6.35649e-07
-9.03257e-06
-2.26065e-06
0.000231244
0.000139689
-0.000140749
0.000158929
-4.10389e-05
0.000119676
-0.000585866
0.000340523
-0.0003268
0.000652683
0.000198215
0.000338257
-4.21155e-06
-9.27762e-05
6.27235e-06
-2.53457e-06
-5.97964e-05
-1.33008e-06
-3.64289e-05
-5.8586e-07
-2.02357e-05
-1.70588e-07
-9.44784e-06
-2.43123e-06
0.00010659
9.33177e-05
-6.02179e-05
9.11255e-05
-7.29455e-05
9.78007e-05
-1.91634e-05
6.27664e-05
-0.000308109
0.000325883
0.000133053
0.000171751
1.47039e-05
-8.20807e-05
-2.53994e-05
7.83513e-06
-5.29276e-05
3.64998e-06
-3.22438e-05
1.34098e-06
-1.79267e-05
2.44357e-07
-8.35121e-06
-2.18688e-06
8.06588e-05
5.83716e-05
-4.57127e-05
6.04458e-05
-2.95382e-05
5.34601e-05
-2.86049e-05
4.88744e-05
-5.27137e-06
1.77742e-05
8.53033e-05
0.000128409
-5.25293e-05
5.17739e-05
8.60588e-05
1.50886e-05
-3.0152e-05
-6.70173e-05
7.44617e-06
-4.52852e-05
3.31697e-06
-2.81146e-05
1.21133e-06
-1.58211e-05
2.40125e-07
-7.38e-06
-1.94675e-06
3.50951e-05
-2.92528e-05
3.71382e-05
-2.24051e-05
3.52396e-05
-1.13177e-05
2.5962e-05
-5.69255e-06
1.25029e-05
-3.46044e-05
2.97004e-05
5.66778e-05
-1.94924e-05
3.47657e-05
-4.33879e-05
-7.81155e-06
-2.75019e-05
-1.77964e-06
-1.34119e-05
-3.72639e-06
1.96992e-05
-1.92085e-05
2.20748e-05
-1.41894e-05
2.13532e-05
-8.51873e-06
1.69553e-05
-2.31099e-06
6.81031e-06
1.57499e-05
-2.08865e-05
3.48371e-05
-8.20747e-06
3.31074e-06
1.01695e-05
-5.27279e-06
-8.0491e-06
3.45923e-05
-3.99551e-05
-1.17755e-05
8.21754e-06
-1.10663e-05
1.85986e-05
1.02599e-05
-1.14472e-05
1.21519e-05
-9.2856e-06
1.25568e-05
-5.393e-06
1.01958e-05
-1.75918e-06
4.49931e-06
-6.45076e-06
2.2897e-06
-4.04641e-06
-4.92444e-06
1.701e-06
6.53417e-06
-3.74443e-06
6.70085e-06
-1.28339e-05
9.87744e-06
4.03383e-06
-5.85713e-06
1.00408e-05
5.18568e-06
-5.99211e-06
6.18625e-06
-5.48155e-06
6.79445e-06
-3.52323e-06
5.951e-06
-1.14822e-06
2.74014e-06
-4.68316e-06
2.14346e-06
-3.91106e-06
-3.82526e-06
1.19053e-06
-2.79484e-06
7.51414e-07
-1.96751e-06
2.51329e-06
6.15507e-06
-2.85276e-06
3.47761e-06
-1.67157e-05
1.60908e-05
1.81336e-06
-3.01775e-06
5.23822e-06
2.44243e-06
-3.11389e-06
3.02844e-06
-2.83431e-06
3.38611e-06
-2.07321e-06
3.17811e-06
-7.5034e-07
1.59193e-06
-2.75965e-06
2.47084e-06
-4.39436e-06
-2.77347e-06
1.09166e-06
-2.15396e-06
5.4965e-07
-1.46271e-06
2.46613e-07
-8.4618e-07
5.06708e-07
-7.12816e-07
4.19042e-06
7.58771e-07
-1.31232e-06
2.36691e-06
9.94742e-07
-1.57006e-06
1.36285e-06
-1.44829e-06
1.60834e-06
-1.05654e-06
1.55012e-06
-4.45216e-07
8.41585e-07
-1.2794e-06
1.89128e-06
-3.37152e-06
-1.58797e-06
1.28535e-06
-1.55263e-06
4.90329e-07
-1.11554e-06
2.02478e-07
-6.47284e-07
4.77183e-08
-2.06108e-07
1.07849e-06
5.95781e-07
-9.15498e-07
3.36969e-07
-6.54542e-07
5.04119e-07
-7.1133e-07
6.91903e-07
-5.3186e-07
7.15485e-07
-2.21905e-07
3.96369e-07
-5.391e-07
8.76967e-07
-1.61726e-06
-6.68187e-07
9.71498e-07
-8.57795e-07
5.90511e-07
-8.00729e-07
1.7552e-07
-4.86624e-07
4.18164e-08
-1.58391e-07
1.62132e-06
8.69564e-07
-1.41239e-06
5.90193e-07
3.42562e-07
1.36316e-07
-2.86739e-07
2.32589e-07
-2.52016e-07
2.93099e-07
-1.09476e-07
1.74464e-07
-9.28632e-07
-5.97264e-07
9.86794e-07
-2.21001e-07
4.29775e-07
-3.22868e-07
4.36571e-07
-4.25066e-07
2.14847e-07
-3.46921e-07
3.58169e-08
-1.16575e-07
1.82546e-06
3.05437e-07
-5.09579e-07
9.74987e-07
4.8477e-07
3.08967e-07
1.69911e-07
4.50591e-08
-9.92083e-08
8.91524e-08
-4.80692e-08
6.49884e-08
1.52924e-06
-4.58824e-07
7.5505e-07
-9.24504e-07
1.52511e-06
-4.92489e-07
-3.2578e-07
-7.8642e-08
1.8555e-07
-1.41746e-07
1.53251e-07
-1.75645e-07
4.35703e-08
-8.07582e-08
1.11177e-06
1.68659e-07
5.58924e-07
2.34814e-07
1.48822e-07
6.61484e-08
8.45064e-09
-1.85063e-08
1.69193e-08
9.0898e-07
-2.56022e-07
-5.0801e-07
-2.50058e-07
-1.54364e-07
-1.92865e-08
6.30898e-08
-5.09539e-08
2.85603e-08
-3.71878e-08
6.45569e-07
8.20131e-08
2.94233e-07
8.94033e-08
6.01631e-08
1.44357e-08
-1.58709e-09
5.1472e-07
-1.25172e-07
-2.43348e-07
-1.16327e-07
-5.73243e-08
5.71867e-10
1.1564e-08
-8.62787e-09
3.44096e-07
3.21501e-08
1.30449e-07
1.9118e-08
1.28484e-08
2.67732e-07
-4.88079e-08
-9.1942e-08
-4.48467e-08
-1.19058e-08
2.93597e-09
1.55102e-07
7.49683e-09
3.19668e-08
1.1731e-07
-1.1016e-08
-1.9478e-08
-8.96982e-09
3.94639e-08
2.84479e-08
0.000493352
-0.00130834
-0.00106327
0.000230162
-0.00040302
0.000679932
-0.00044977
0.000376667
0.00113852
-0.000761851
0.00092197
-0.000386366
0.00132357
-0.00170994
0.000260305
-0.000371822
-0.00105639
0.000294542
0.000108343
-0.000241019
-0.000294677
4.07492e-05
-0.000103369
-0.00020027
0.000209981
-0.000504658
0.000831993
-0.000622012
0.000382223
-0.000674171
0.00157299
-0.00127845
-0.000136948
0.000941914
-0.00107886
0.000570092
9.08705e-05
0.000613598
-0.00128777
-0.000664851
-5.36546e-05
0.000173067
-0.000226722
-2.72021e-05
-0.00053186
-6.59007e-05
-0.000465959
0.00085891
-0.000924811
0.000236898
-0.00105087
0.000787744
-0.0014526
-0.000291118
0.000599104
-0.000890221
-0.000689974
0.00036282
-0.000706553
0.000505986
-0.000343733
0.000383537
-0.00143441
-0.00106906
0.000654261
0.000874986
0.00164836
-0.000151389
0.000569678
-0.000696922
0.000620222
-0.000190936
-0.000639537
0.000488148
-0.000399554
-0.000623926
0.000662084
-3.70389e-06
-0.000665083
0.000265529
-0.000526309
0.000135775
-0.000158146
7.47653e-05
-0.000232911
-0.000391194
0.000142513
-0.000533707
-0.000782299
1.92804e-05
-0.000801579
-0.00141513
0.00043992
-0.00150898
0.000450301
-0.000794034
0.000153186
-0.000344123
-0.000640848
-0.000241557
-0.00117357
-0.00175054
-0.000429908
0.00130489
0.000162938
0.000732615
0.000492624
0.00115574
0.00179752
0.00137968
0.000471785
0.00026083
-0.000121633
0.000593418
0.000366515
0.000476086
-0.000479789
0.000131963
2.84011e-05
0.000338114
0.00029393
9.74098e-05
0.00019652
0.000233185
-0.000246605
-0.000189873
3.43052e-05
-0.000224178
-0.000499401
-1.23037e-05
-0.000487098
-0.000813883
-0.000265339
-0.000548544
-0.00143891
0.0012801
-0.00114814
0.000639252
-0.00111128
-0.00144538
0.000297247
0.000654676
-0.00176596
-0.000784233
0.000986938
0.00081058
0.00124777
-0.000648003
0.000986259
0.000731677
0.00154226
0.000628349
0.000619419
0.00122177
0.000683877
0.000537889
0.00102199
0.00101869
3.29924e-06
0.00121521
0.000968608
-0.000476777
-0.000217906
-1.21481e-05
-0.000205757
-0.000499246
-0.000239499
-0.000259747
-0.000788043
-0.0002811
-0.000506943
-0.00106533
0.0014236
-0.00112635
-0.000342364
0.00114115
-0.00161793
1.48028e-05
0.000773187
-0.00111555
-0.000292145
-0.000365828
0.000537579
0.000620431
-0.000590453
0.00121088
0.000951803
0.00157122
0.00131318
0.000258046
0.00185106
0.00185436
-0.000376198
0.00111987
-0.00074367
0.00199413
-0.000139761
-0.000231157
0.000343832
-0.000635978
-7.46308e-05
-0.000156526
-0.000334378
-8.94903e-05
-0.000244888
-0.000596433
-0.000252601
0.000978708
0.00014116
-0.00099351
-0.000122041
-0.000388054
0.000529214
-0.000555158
-8.08194e-05
0.000381392
-0.000503433
-0.000173767
-0.000623831
0.000235777
-0.000198388
0.000326796
0.000339192
3.67652e-05
-0.00034191
0.000305145
-0.000587066
-3.6384e-05
0.000191933
-0.000155549
-0.000378294
-0.000342564
0.000681756
0.00086832
0.00112637
-0.000165557
-0.000421509
-0.000909227
0.00069791
0.000428456
0.000558149
-0.000351077
-0.000186678
0.000237162
-0.000317981
-0.000396695
0.000144094
-0.000159533
-8.92926e-05
-9.73855e-05
-0.00033418
-0.000190086
-0.000688253
0.000184821
-0.00015904
-0.000333636
0.000174596
-9.78584e-05
-0.0002938
-2.4181e-05
0.000467567
-0.000282746
-0.00038176
0.000283902
-7.66151e-05
0.000222291
-3.03577e-05
0.000145676
-0.000141435
0.000111077
3.66405e-05
8.72729e-05
-0.000123913
-0.000104794
-0.000260343
-0.000129907
-0.000130436
-9.30782e-05
0.000179137
0.000233718
-9.74502e-05
0.000331168
0.000584306
0.000199858
-0.000329765
-0.000178436
-0.000599945
0.000253516
0.00033079
-0.000330895
-0.00026905
0.000681972
-4.41796e-05
0.000100857
0.000134957
7.75368e-05
-0.000174922
-1.05194e-05
-0.000276383
0.00011685
-0.000300564
-6.87579e-05
-0.000106164
-0.000258844
-0.000141994
0.000275675
8.22684e-06
-0.000450271
0.000167525
-0.000310081
9.5178e-06
-0.000142557
-0.000182626
0.000190853
-0.000203177
2.05508e-05
-5.7501e-05
-0.000150595
9.30936e-05
-3.95174e-05
-9.19822e-05
5.24648e-05
-4.70931e-06
-3.86986e-06
2.95779e-05
-2.57081e-05
6.29966e-06
-7.46088e-06
3.70388e-05
6.03362e-05
-6.77971e-05
5.56269e-05
-1.44098e-05
-5.33873e-05
-0.000138323
-5.92853e-06
-1.97795e-05
-5.93159e-05
-2.50523e-05
-3.70592e-05
-0.000101264
-0.000167496
-3.60491e-05
-0.000131447
-0.000365815
-9.78433e-05
0.000232801
0.000233325
0.000564115
-0.00021287
-0.000152944
0.000481921
8.21943e-05
-1.08593e-05
4.56963e-05
8.99982e-05
3.79089e-06
8.62073e-05
0.000236592
3.62975e-05
-0.000142462
7.09039e-06
-4.82032e-05
-9.42585e-05
-0.000190198
-0.00018068
-0.000139428
-4.12522e-05
-0.000281984
-9.11316e-05
0.000120924
-2.78308e-05
-0.000141475
5.03435e-05
4.43807e-05
1.12462e-05
9.68455e-05
6.90147e-05
3.63556e-05
6.83165e-07
4.76018e-05
1.05606e-05
-2.0329e-05
-3.89869e-05
-0.000121593
-8.78237e-06
-1.62699e-05
-4.77693e-05
-2.03163e-05
-4.04434e-06
2.26429e-05
4.1652e-05
-4.4374e-05
-7.72189e-05
-0.000175821
-6.70453e-05
-0.000108775
-0.000219989
0.0001724
6.41914e-05
0.000254594
3.4605e-05
-2.76495e-05
6.93015e-05
5.85578e-05
0.000122749
6.78831e-05
-2.02812e-05
0.000136898
-0.000145989
5.17306e-05
-0.000187241
-1.17755e-05
-4.19042e-06
1.0947e-06
2.15482e-05
1.11355e-05
-6.87345e-06
-4.08958e-05
-8.40924e-05
-9.52099e-06
-1.07954e-05
-5.04168e-05
-1.47064e-05
-1.40764e-05
3.56246e-05
5.52251e-05
-2.55408e-05
-5.85516e-05
-0.000134316
-9.97111e-05
5.28479e-06
4.99403e-05
0.000128034
2.83228e-05
1.09166e-05
2.4708e-05
-2.47036e-06
7.70858e-06
8.66516e-06
1.95818e-05
7.53025e-08
7.63328e-06
2.44223e-06
-3.11282e-05
-1.92886e-05
-8.96798e-05
-1.19876e-05
-2.71881e-06
-3.12762e-05
-7.11317e-06
6.00837e-06
1.86996e-05
5.59487e-05
5.48382e-05
1.11049e-06
-8.3161e-05
-6.51876e-06
8.70544e-06
1.08764e-05
2.74051e-05
3.53967e-06
4.09362e-06
1.4416e-05
1.52673e-06
5.62035e-06
-2.54235e-05
-5.85269e-06
-3.19423e-05
9.71893e-07
-4.34342e-06
-6.14128e-06
-1.1994e-05
2.38114e-05
3.59365e-06
2.49219e-05
2.93022e-05
-4.38027e-06
-2.64012e-06
-1.26171e-07
-4.21725e-06
-1.74344e-06
1.19133e-05
2.50275e-06
1.55069e-05
4.20795e-06
6.71071e-06
-1.44831e-07
-4.07242e-06
-1.21388e-05
-1.47789e-05
1.58226e-05
-3.1571e-07
-1.14424e-05
-3.33654e-06
-7.56646e-07
-4.82906e-06
6.20113e-06
5.88543e-06
6.64048e-06
-3.30395e-06
)
;

boundaryField
{
    movingWall
    {
        type            calculated;
        value           uniform 0;
    }
    fixedWalls
    {
        type            calculated;
        value           uniform 0;
    }
    frontAndBack
    {
        type            empty;
        value           nonuniform List<scalar> 0();
    }
    defaultFaces
    {
        type            empty;
        value           nonuniform List<scalar> 0();
    }
}


// ************************************************************************* //
