/*--------------------------------*- C++ -*----------------------------------*\
  =========                 |
  \\      /  F ield         | OpenFOAM: The Open Source CFD Toolbox
   \\    /   O peration     | Website:  https://openfoam.org
    \\  /    A nd           | Version:  8
     \\/     M anipulation  |
\*---------------------------------------------------------------------------*/
FoamFile
{
    version     2.0;
    format      ascii;
    class       volScalarField;
    location    "15000";
    object      epsilon;
}
// * * * * * * * * * * * * * * * * * * * * * * * * * * * * * * * * * * * * * //

dimensions      [0 2 -3 0 0 0 0];

internalField   nonuniform List<scalar> 
4109
(
0.117447
0.131116
0.120838
0.129916
0.135544
0.131548
0.136733
0.120697
0.145285
0.145067
0.143158
0.147245
0.119921
0.134621
0.139704
0.150934
0.151626
0.150008
0.151989
0.141144
0.121852
0.130567
0.13173
0.158827
0.160151
0.165312
0.12003
0.133839
0.11853
0.160473
0.149187
0.143095
0.133003
0.131282
0.137942
0.163078
0.164096
0.176555
0.137227
0.119632
0.134419
0.137038
0.122401
0.166565
0.154522
0.552365
0.255181
0.14888
0.143821
0.13269
0.138997
0.170776
0.178451
0.192216
0.150491
0.137577
0.117321
0.135044
0.139388
0.147665
0.144053
0.676458
0.177315
0.163067
0.157187
0.221596
0.552454
0.151027
0.143484
0.143882
0.207829
0.184805
0.236317
0.22742
0.224585
0.155878
0.155617
0.144025
0.134715
0.144291
0.140625
0.143545
0.149292
0.152087
0.182432
0.249295
0.590755
0.80067
0.809985
0.188968
0.184678
0.169517
0.163118
0.157877
0.197333
0.421864
0.15129
0.144307
0.237085
0.220717
0.209838
0.242332
0.248356
0.245916
0.251896
0.165709
0.161266
0.1558
0.14121
0.154485
0.207863
0.1472
0.151788
0.154738
0.161326
0.819509
0.30326
0.401443
0.566776
0.895489
0.847247
0.251614
0.206332
0.194386
0.178849
0.172039
0.16567
0.157374
0.429087
0.167516
0.154808
0.241512
0.227104
0.260361
0.251883
0.27434
0.256568
0.172103
0.169831
0.16923
0.155097
0.160978
0.211137
0.152189
0.157548
0.162785
0.166815
0.798472
0.474382
0.916175
0.598835
0.925773
0.284562
0.214462
0.20367
0.186773
0.17915
0.172491
0.166056
0.159943
0.41508
0.15346
0.235695
0.221824
0.269644
0.248224
0.279166
0.283649
0.300085
0.18271
0.178202
0.17704
0.163927
0.169624
0.226583
0.15922
0.165603
0.168918
0.176764
0.556418
0.972864
0.579422
1.00951
0.98465
0.313522
0.197387
0.207055
0.188714
0.172258
0.180784
0.170829
0.4735
0.161008
0.219138
0.230588
0.263616
0.24429
0.278158
0.297222
0.296313
0.338056
0.190366
0.188178
0.189467
0.177756
0.17134
0.228549
0.16579
0.171663
0.177975
0.183812
0.602683
1.0539
1.07885
0.665646
1.09679
0.310508
0.198463
0.210152
0.184846
0.178406
0.496839
0.171574
0.221467
0.234392
0.257909
0.247681
0.273649
0.29623
0.311801
0.335234
0.375038
0.202438
0.196963
0.196601
0.189105
0.178954
0.241265
0.179824
0.172461
0.211963
0.185976
0.194914
0.591077
1.15097
0.698666
1.19338
1.19335
0.32877
0.200874
0.208845
0.190318
0.547329
0.171193
0.224061
0.234164
0.26209
0.25034
0.277485
0.289834
0.315064
0.338442
0.362229
0.422392
0.213111
0.205312
0.202633
0.222028
0.181141
0.245414
0.184169
0.225183
0.203814
0.196864
1.24216
0.61557
1.29078
0.76621
1.32887
0.338858
3.64985
0.202939
0.215065
0.577117
0.178517
0.223621
0.237584
0.263058
0.249451
0.279758
0.293522
0.308307
0.33749
0.364643
0.402126
0.412959
0.47906
0.210093
0.219835
0.203514
0.234337
0.236736
0.186846
0.255193
0.199698
0.216297
0.207085
0.639669
1.36584
1.41535
0.770753
1.445
0.353622
4.40738
3.87582
4.60697
3.18424
3.9592
2.78974
0.751778
0.187304
0.231469
0.238885
0.253836
0.252521
0.267541
0.280595
0.29401
0.311392
0.42399
0.327688
0.361238
0.397176
0.478459
0.541667
0.510046
0.617859
0.231726
0.225024
0.247546
0.251646
0.227121
0.199411
0.271782
0.207346
0.219421
0.698614
1.52082
1.50327
0.357032
9.80429
7.17486
4.72242
3.39321
4.36372
5.47821
0.724371
0.718618
0.810411
3.02079
2.61985
2.79068
2.54537
2.91515
1.38706
0.219007
0.305737
0.287316
0.27407
0.464694
0.28491
0.295614
0.311872
0.330418
0.42252
0.349641
0.387942
0.533201
0.479672
0.589861
0.576224
0.721148
0.806613
0.248665
0.251309
0.265022
0.264859
0.241316
0.231316
0.209936
0.269351
0.223009
0.789584
1.8116
10.1273
7.33936
3.60962
4.35717
5.52844
0.787731
0.840137
0.920337
0.843768
0.898342
2.13266
2.32175
2.24651
2.52334
2.99091
2.06889
1.18222
0.318532
0.328555
0.29216
0.454859
0.47188
0.310679
0.308337
0.329142
0.351503
0.414618
0.373177
0.542322
0.509188
0.595643
0.647278
0.729696
0.766512
0.276542
0.265319
0.232793
0.293498
0.281783
0.254491
0.245423
0.319437
0.236784
0.224545
0.330625
0.867986
9.84249
11.2001
7.49129
3.58597
4.45296
5.70717
0.830642
1.00247
1.18956
0.939053
1.02763
1.82949
1.47208
0.933203
1.00112
1.9927
2.18588
2.5446
2.95255
2.48327
2.13116
0.605349
0.345419
0.325259
0.44396
0.473825
0.325191
0.32834
0.349738
0.374208
0.400022
0.553597
0.513289
0.605108
0.660802
0.698565
0.758244
0.302254
0.319377
0.295075
0.248683
0.249057
0.270971
0.286962
0.259836
0.334764
0.307204
1.72608
2.49531
0.241297
0.235146
10.2517
7.29755
7.04484
11.4057
7.76151
3.63366
4.54875
5.91913
0.912761
0.805852
1.07055
1.20277
1.13502
1.4044
1.66362
1.0369
1.12286
1.908
2.14635
2.52699
3.06518
3.2711
3.08739
3.87674
0.6418
0.409811
0.348308
0.429296
0.462463
0.350668
0.346666
0.370389
0.400717
0.498965
0.540404
0.586575
0.639251
0.693383
0.739234
0.773232
0.33738
0.335561
0.262454
0.261986
0.276741
0.293221
0.31276
0.358075
0.32708
0.264367
0.361009
0.458454
10.664
7.53975
6.47381
4.31498
4.3917
11.5843
7.60072
3.71551
4.14697
4.95762
1.00671
0.876719
0.838714
1.61549
1.25986
1.35025
1.15896
1.24828
1.86929
2.11717
2.63669
3.13222
0.944765
3.87794
3.92199
4.47737
0.854592
0.45553
0.386807
0.429776
0.462374
0.371135
0.37331
0.398424
0.498412
0.539005
0.584337
0.635693
0.680297
0.713925
0.770654
0.782891
0.376176
0.37787
0.283053
0.282784
0.298944
0.315768
0.331774
0.385257
0.349434
0.332948
0.283578
0.302667
10.4477
3.29171
6.16611
5.39711
4.35535
11.7404
7.70914
3.51002
4.33029
5.22202
6.51452
1.11569
0.862336
0.976294
0.867314
1.29764
1.56127
1.41971
1.87386
2.27455
2.71537
2.99761
0.994338
4.63628
4.81261
5.59031
0.964612
0.532884
0.421957
0.460092
0.42606
0.396672
0.401677
0.49467
0.535264
0.627015
0.578133
0.667742
0.709719
0.711792
0.759965
0.823953
0.421507
0.407905
0.417834
0.304297
0.303464
0.330321
0.34941
0.372164
0.36464
0.306069
0.349452
10.9353
7.30173
2.47821
2.7169
4.9653
4.35675
3.59392
8.10778
11.6782
3.65402
4.28726
5.04612
6.20935
1.23862
0.892837
1.06792
0.919246
0.979826
1.46353
1.57339
1.37164
1.94505
2.32959
2.63831
3.13335
1.47393
5.5547
5.89835
6.51478
1.2079
0.610829
0.444736
0.463044
0.429006
0.429568
0.502864
0.534684
0.617386
0.580803
0.681161
0.711793
0.74913
0.798985
0.85711
0.474619
0.456775
0.45167
0.400131
0.330298
0.332456
0.351184
0.365318
0.381392
0.330772
0.412325
11.7556
8.623
6.4432
5.50839
1.92308
2.16862
2.59469
4.1624
3.56008
3.08902
1.56117
8.09184
11.4655
11.6747
3.6375
4.28798
5.73851
5.04662
1.19567
0.943882
1.04419
0.973716
1.51542
1.70893
1.33248
3.13816
2.00076
2.24162
2.7031
1.59795
6.7578
7.27304
8.13403
0.473391
1.44743
0.631178
0.466641
0.466569
0.554011
0.531775
0.636349
0.643753
0.598478
0.691275
0.75292
0.811261
0.537123
0.500035
0.485586
0.428654
0.414887
0.351334
0.347284
0.371955
0.394283
0.355378
0.440611
0.617021
0.702066
8.36457
6.67936
5.12869
4.42389
1.77569
2.19127
2.62916
3.42764
2.94203
1.4646
1.24731
1.07337
0.860721
0.799973
10.8309
7.80641
10.8555
8.13343
3.16462
3.67723
4.21667
5.60405
1.17295
0.996242
1.0563
1.72703
1.52246
1.33607
1.26962
2.69359
2.68788
1.97713
2.33248
1.95489
9.22465
8.37607
9.37239
0.665294
1.55644
0.501424
0.557446
0.639107
0.583256
0.686676
0.732801
0.786205
0.541475
0.52055
0.462879
0.440205
0.418149
0.380345
0.375293
0.39912
0.513469
0.384193
0.741298
0.619381
0.680215
6.409
5.41963
4.19619
3.58392
1.79217
2.24733
2.47653
2.82513
1.57428
1.23732
1.30377
0.760503
1.04561
0.825783
0.900504
8.01285
6.67113
6.2525
5.15082
3.00251
3.52707
4.60312
2.63039
1.13366
1.0573
1.64541
1.40684
1.532
1.36024
1.22197
2.36244
2.40651
2.00183
1.804
11.3053
10.5275
11.365
1.07533
1.74615
0.552425
0.325722
0.63558
0.700511
0.759609
0.561334
0.49899
0.479268
0.452833
0.426529
0.403018
0.396361
0.462776
0.40187
0.691125
0.616146
5.04642
5.20355
4.42532
3.43665
2.91191
1.92208
2.12035
2.36741
1.64355
1.45871
1.28052
0.768993
0.819099
1.128
0.891279
0.984568
5.79421
5.17641
5.13595
4.29851
2.32756
3.11933
3.40962
2.69069
4.32648
1.1215
1.72947
1.56774
1.47289
1.30098
1.19121
1.80687
1.99252
2.03128
1.84989
15.1853
13.6379
15.6488
3.07301
0.617831
0.901246
0.681394
0.743254
0.54147
0.513411
0.483969
0.459919
0.433654
0.429523
0.471773
0.437812
0.67673
0.587682
4.25038
4.32604
3.54113
2.79965
2.41798
1.82953
2.01411
1.58802
1.39072
1.23524
0.73914
0.801274
1.10345
0.887542
0.980629
4.27265
4.13339
3.34532
1.89332
2.0972
2.38375
2.6044
3.55148
1.50034
1.37258
1.25155
1.64509
1.58003
1.79791
2.64482
20.8835
27.3964
9.4526
0.67789
1.11681
0.739185
0.560258
0.525762
0.4952
0.462853
0.458289
0.506362
0.641493
0.605448
3.51507
3.45936
2.81686
2.32353
2.0518
1.73467
1.51063
1.32712
1.17599
0.701314
0.770843
1.04884
0.849662
0.94195
3.40615
3.40175
2.78919
1.95536
2.1278
2.30828
1.81823
2.82758
1.41158
1.30882
1.5097
1.54038
1.67697
4.70943
46.1643
45.4987
21.3375
0.754584
2.34237
0.566036
0.536535
0.494038
0.502083
0.618608
0.66322
0.617523
2.83005
2.81309
2.33797
1.98757
1.76637
1.53934
1.35298
1.20186
0.722681
0.795329
1.07356
0.873576
0.967579
2.78428
2.77102
2.32925
1.85494
1.98324
1.68678
2.347
1.35724
1.43021
1.45601
1.52722
1314.44
10.0968
77.94
81.0471
51.3543
1482.06
0.57955
0.541244
0.556469
0.553661
0.848906
0.669739
0.63024
2.30199
2.32658
1.99986
1.72339
1.50583
1.33252
1.18733
0.734069
0.800822
1.07025
0.880699
0.966507
2.21336
2.23581
1.98269
1.68309
1.53065
1.95586
2.00959
1105.63
1207.57
23.4074
139.892
140.025
1581.94
1368.8
1951.42
0.594757
0.541555
0.613936
0.610639
1.41867
0.685712
0.625129
2.01128
2.00478
1.7267
1.50891
1.33495
1.1959
0.749651
0.819722
1.08029
0.982877
0.896165
1.97308
1.75619
1.5274
1.74006
1.81119
1.77997
765.498
976.018
1147.95
53.4559
1532.83
1304.33
1833.49
1961.69
0.621454
0.617009
0.683094
3.05463
0.69939
0.634824
1.67086
1.68281
1.48697
1.32162
1.19071
0.75048
0.83217
1.08565
0.991898
0.909469
1.76057
1.57274
1.623
1.65276
1.63803
1.61587
713.717
612.092
896.897
1138.69
1897.48
1679.19
1524.18
1292.6
1911.17
1981.01
0.660359
0.681191
0.756276
0.681863
0.700275
0.740031
1.54804
1.37307
1.2523
1.13419
0.810669
0.822034
1.06372
0.964323
0.918441
1.57055
1.5248
1.52905
1.50798
1.48163
557.968
507.681
864.053
1195.14
2190.39
1965.54
1473.49
1725.37
1572.51
1349.41
2039.05
2022.55
0.695944
0.723841
0.739425
0.761956
0.82264
1.45043
1.33284
1.23496
1.13748
0.85311
0.878214
1.06159
0.990503
0.932847
1.42033
1.38875
1.34338
2450.94
445.502
441.062
884.19
1369.68
2212.5
2138.51
1260.09
1495.99
1817.17
1713.74
1528.21
2269
2098.64
0.726049
0.75257
0.787708
0.820091
1.3213
1.27178
1.2044
1.13311
0.865976
0.90918
1.06606
1.0083
0.953792
2895.49
2421.27
366.608
407.014
990.197
1881.82
2276.86
2426.69
1155.7
1260.35
1549.98
1968.58
2040.67
2051.79
2678.15
2236.99
3321.92
3008.99
2396.85
314.341
408.286
1333.76
4454.49
2421.03
2930.53
989.01
1163.27
1290.3
1654.59
2223.59
2896.03
4638.54
3463.18
2480.25
3374.36
3730.25
3055.38
2413.92
292.748
487.416
3079.03
2703.21
3777.35
876.882
999.847
1193.14
1365.6
1844.81
2686.62
6776.25
5315.06
3328.06
3868.94
4149.67
3087.46
2526.18
322.074
958.464
3284.29
5364.56
596.859
869.567
1048.52
1261.84
1514.66
2208.03
3718.13
12567.5
2677.02
3691.34
4512.75
4527.51
3165.54
2828.93
573.969
4693.69
129.284
536.979
868.493
1148.89
1397.42
1807.69
3042.52
7544.76
2913.04
3105.66
4042.18
5372.75
4859.54
3400.92
3638.65
10115.2
83.719
121.439
493.305
873.622
1332.49
1665.93
2486.78
6174.09
2432.77
3306.96
3644.43
4411.63
6530.9
5250.29
4126.36
6828.66
91.1745
88.143
117.576
462.952
887.916
1679.29
2289.52
4978.55
1331.04
2826.62
3766.42
4313.63
4844.66
7939.57
6145.22
7109.13
97.222
99.1878
95.7616
118.789
446.987
922.92
2459.74
4556.28
1074.43
1549.64
3270.15
4341.2
5136.13
5749.42
9646.5
9594.33
97.6948
105.688
110.74
107.941
128.819
449.71
1032.73
5230.73
930.212
1170.11
1773.09
3798.38
5167.04
6151.51
7954.77
11964.5
92.3588
106.141
117.891
127.702
127.757
160.348
520.432
1298.5
947.293
1044.86
1279.43
2056.19
4443.89
6528.16
8213.78
11073.3
85.3098
100.282
118.328
135.87
154.168
163.409
249.634
1060.46
1072
1058.14
1171.8
1429.59
2480.17
5263.71
9351.16
18305.5
128.449
89.7419
111.808
136.294
164.025
200.824
246.351
662.7
1339.92
1171
1182.86
1334.52
1666.65
3221.4
6564.27
15178.4
577.347
121.151
97.4214
128.798
164.452
213.96
307.814
600.144
2461.37
1555.16
1283.72
1344.79
1575.33
2090
4717.33
11705
901.609
523.288
117.719
109.704
155.394
214.411
328.777
763.812
3035.24
2868.57
1775.39
1436.7
1586.22
1988.65
3014.57
9088.21
1000.67
888.315
481.809
119.341
129.698
202.382
329.349
817.165
2747.48
3554.14
3366.96
2044.07
1675.96
2002.26
2869.1
6006.05
1174.23
1015.6
885.532
451.995
129.957
165.662
310.211
817.145
3384.16
3263.51
4187.13
4060.75
2429.13
2110.76
2891.22
5719.56
1268.83
1185.46
1069.45
890.699
436.155
162.012
249.023
767.085
3312.44
3823.85
4029.6
4963.56
5097.35
3054.64
3071.97
5792.52
1486.15
1271.47
1220.43
1176
905.896
438.904
251.597
601.782
3216.16
3796.18
4411.66
5292.19
5947.63
6900.39
4312.97
6260.6
1705.83
1513.68
1305.29
1295.61
1367.78
943.954
509.475
662.145
2899.4
3593.8
4443.41
5267.16
7595.35
7504.46
12996.6
8283.49
2081.57
1891.09
1763.58
1573.73
1385.71
1439.91
1727.5
1057.62
1047.87
2436.83
3024.55
4006.31
5288.81
6581.71
12863.3
10945.3
66125
1696.82
2082.92
1987.29
1868.44
1684.69
1541.87
1722.48
2538.74
1341.44
2175.95
2407.12
3079.85
4432.09
6430.81
8669.38
27848.6
14148.1
1848.18
1532.35
1655.55
2103.71
2130.37
2032.97
1882.55
1847.64
2376.7
5421.29
2185.31
2380.78
3101.97
4866.04
7938.75
12080.4
77312.3
1911.78
767.191
1437.59
1435.19
1656.05
2149.72
2380.01
2303.04
2257.94
2553.09
4760.24
851.424
1214.19
2240.53
2393.91
3165.8
5380.8
9748.53
10887.9
2070.59
600.817
1323.3
1380.81
1716.68
2234.06
2818.27
2787.13
3117.42
5150.4
678.417
1084.41
2377.49
2501.02
3398.98
6331.72
11494.7
2344.11
480.447
1260.94
1379.1
1878.51
2385.28
3654.38
3856.73
6354.68
563.582
1004.12
2651.22
2797.39
4117.87
9617.46
2827.04
395.835
1254.51
1449.53
2243.11
2651.4
5632.22
7834.78
489.677
972.643
3216.06
3592.95
7032.81
3658.65
339.23
1321.4
1653.55
3195.15
13422.3
450.663
999.557
4585.37
6725.36
5226.07
314.816
1521.43
2238.14
7538.7
448.708
1121.89
9841.79
342.996
2101.52
5136.81
527.306
1509.28
610
5000.11
1009.37
3464.49
0.90603
0.86623
0.890955
0.890877
0.920107
0.916294
0.929832
0.929225
0.947148
0.833826
0.854739
0.862937
0.886694
0.893366
0.91661
0.926052
1.00139
1.02604
1.04905
1.08605
1.11265
0.946262
0.958973
0.945256
0.946329
0.95457
0.94911
0.973686
0.965974
0.992034
1.15606
1.17648
0.806157
0.828106
0.839622
0.861527
0.873053
0.892867
0.909475
0.929276
0.945686
0.964019
0.983333
1.00317
1.03471
1.05783
1.10936
1.13567
1.22581
1.24027
0.976862
0.991793
1.0114
1.02756
1.05184
1.07387
1.1143
0.972253
0.976755
0.974606
0.973643
0.992975
0.981236
1.02188
1.00875
1.04181
1.11398
1.14384
1.31067
1.33636
1.22347
1.21764
1.29946
0.786534
0.805914
0.822443
0.841357
0.858978
0.877612
0.89771
0.915323
0.943144
0.963832
0.989216
1.00865
1.07824
1.093
1.15295
1.16679
1.24362
1.26843
1.34956
1.38621
1.47994
1.49381
1.6276
0.999362
1.00867
1.02781
1.04397
1.06909
0.997953
0.999802
1.00858
1.00126
1.03385
1.01939
1.09376
1.06965
1.05299
1.07841
1.13798
1.14201
1.22509
1.25093
1.57228
1.36585
1.48742
1.31662
1.36246
0.775558
0.793406
0.813505
0.832531
0.853519
0.871551
0.894153
0.91454
0.935806
0.960922
0.991405
1.0331
1.15499
1.11006
1.22802
1.25288
1.34766
1.36497
1.4505
1.67573
1.72332
1.7422
2.01145
2.0436
1.94664
2.09044
2.09356
2.81655
1.02164
1.03131
1.04779
1.06374
1.14623
1.118
1.02625
1.02335
1.04387
1.03342
1.09658
1.07437
1.05996
1.19813
1.16828
1.08892
1.12859
1.15983
3.64247
3.07157
5.66811
1.23218
1.23538
1.32394
1.35515
1.61022
1.64127
2.30763
1.9363
1.55205
1.61907
0.781369
0.795425
0.820567
0.836494
0.863014
0.879553
0.90895
0.928819
0.991773
0.968584
1.04764
1.07506
1.17045
1.18668
1.36303
1.35931
1.54517
1.55843
1.7339
1.76452
1.94687
22.6166
21.2048
12.4984
2.00988
2.23297
2.40844
2.67696
2.95237
3.10361
3.09224
11.6219
4.93501
1049.73
1328.27
1243.72
1827.49
1541.18
1656.05
1768.1
1836.77
1.04704
1.0492
1.07232
1.0864
1.14232
1.11815
1.05712
1.0506
1.10025
1.08145
1.07019
1.252
1.21984
1.18996
1.16376
1.10698
1.15444
1.25086
1.18776
1.24201
895.012
629.079
109.697
57.4428
25.044
2.46029
4.08781
5.37118
14.9014
1.36684
1.37273
1.38239
1.3731
1.59673
1.62953
1.76906
1.70501
2.29168
961.201
1258.32
1472.68
1399.39
1619.85
1764.87
1798.39
1857.31
1809.38
1760.75
0.872454
0.838313
0.903116
0.891316
0.94943
0.941638
0.999906
0.995814
1.0529
1.05097
1.12037
1.1193
1.23815
1.26865
1.31829
1.33526
1.16517
1.45665
1.26988
1.32121
2.81116
2.80742
3.38566
3.81198
3.72531
58.3873
94.1737
300.485
182.558
56.3481
39.1333
6.34606
8.40208
12.1512
11.4504
36.1178
16.7687
14.8271
390.11
930.577
614.528
675.498
956.028
1183.41
1309.86
1303.26
1608.37
1596.62
1606.1
1519.19
1823.91
1883.61
1917.68
1741.61
1890.82
1811.7
1.07565
1.07597
1.09701
1.11297
1.14477
1.12134
1.10973
1.09199
1.0817
1.30377
1.26924
1.23593
1.20897
1.18381
1.1606
1.12803
1.17411
1.17984
1.24309
1.24813
1.31053
1.24026
185.275
492.096
331.524
848.277
525.184
92.2233
198.272
70.5758
23.7257
1.37451
17.3994
3.06386
6.21485
4.38258
1.55293
1.48508
1.66896
1.56288
1.70548
1.69299
1.93395
1.79259
3.07606
949.797
1332.45
846.984
1460.9
1650.94
1261.05
1490.46
1772.44
1777.49
1795.46
1616.13
1797.51
5.16821
1.15958
103.701
29.1456
2.42258
1.18653
1.79031
1.13755
1.48684
1.09056
1.32661
1.29377
1.2485
1.40559
1.37272
1.60814
2.28954
1.43333
2.75075
4.1324
4.2648
7.77492
22.2888
8.64337
9.29002
39.2822
42.6571
14.8761
13.5956
19.0652
19.9623
26.6731
28.3007
122.086
185.485
344.706
238.061
132.752
83.7263
49.3155
54.2143
99.0949
66.7181
73.0005
608.459
480.461
648.876
963.357
854.321
1267.37
1172.3
1578.56
1415.61
1475.64
1678.66
1847.26
1773.74
1672.75
1856.58
1938.29
1945.32
1.13361
1.1042
1.102
1.12192
1.14425
1.1257
1.11747
1.14608
1.3585
1.32212
1.28275
1.25211
1.22405
1.19715
1.18111
1.15871
1.40807
1.35052
1.4094
1.46357
1.4243
1.45733
1.1989
1.19445
1.2007
1.2259
1.39112
1.29911
1.33906
1.25564
505.807
397.285
234.28
35.5985
172.553
96.0653
1.47564
1.75784
1.6751
44.9596
4.39919
12.4832
7.69081
1.98441
1.90319
2.08434
2.01203
2.39721
2.1009
5.15314
465.883
1041.05
1313.8
901.614
645.904
1473.29
1208.34
1518.29
992.474
1796.51
1841.13
1923.26
1805.62
1665.75
222.3
246.241
58.9986
11.5568
252.708
218.875
30.4904
11.1226
21.3223
6.40296
13.4832
4.2379
9.34744
2.36023
4.42339
10.1066
30.2428
18.3131
37.3094
20.0421
26.5681
65.0712
101.778
111.566
56.9159
53.9408
120.643
137.448
62.5518
70.1324
95.1454
96.2161
126.462
103.593
402.435
215.669
290.835
268.98
210.866
189.649
238.924
141.081
220.578
715.436
527.239
1197.72
937.083
1045.65
1487.63
1333.56
1675.82
1590.72
1779.72
1721.03
1.43958
1.40581
1.13096
1.14767
1.15065
1.13509
1.13305
1.15822
1.1754
1.32593
1.28102
1.2634
1.22853
1.21536
1.1898
1.18094
1.16277
1.37061
1.33306
1.35303
1.3793
1.33167
1.36312
1.19333
1.20277
1.2147
1.26432
1.51804
1.37781
1.41045
1.30858
91.7064
191.381
291.475
1.63531
1.94086
1.90092
2.34705
2.31877
23.6967
102.26
7.07203
21.5959
2.58219
2.3302
4.0395
2.96209
8.17223
314.342
604.445
518.024
1137.44
1172.05
1387.06
1801.9
1939.17
1030.62
1658.9
2062.18
2000.55
2022.1
1875.26
223.08
198.718
102.352
249.118
231.57
290.701
234.682
151.642
319.665
395.977
225.186
107.481
175.415
66.746
124.748
50.7675
65.7446
89.0652
64.4676
143.987
110.886
102.992
103.666
113.177
219.9
241.712
259.825
295.889
188.745
181.467
321.605
339.336
206.507
226.591
290.38
283.382
325.089
552.342
456.718
517.282
358.661
458.225
467.888
415.252
503.789
1028.92
827.379
1386.26
1239.65
1595
1516.28
1676.92
1611.66
1.48239
1.42109
1.37562
1.34152
1.16705
1.16275
1.16426
1.17477
1.19101
1.29984
1.27312
1.24799
1.22827
1.20866
1.19439
1.18583
1.29704
1.3165
1.2766
1.30354
1.27943
1.30286
1.20831
1.20959
1.23616
1.33357
1.25238
1.21368
1.68182
1.52458
1.54351
1.41784
1.82167
234.308
140.64
2.19335
2.22232
2.53633
2.61225
3.44714
4.10865
2.55238
26.6773
127.237
31.8971
9.78388
6.28597
28.6195
587.83
389.18
1298.39
1036.24
1760.87
1887.49
2164.89
2179.01
2253.74
2141.13
6.54964
33.2105
256.862
280.884
64.4751
236.906
310.736
252.148
417.66
447.126
256.892
338.185
455.2
436.264
454.399
299.526
376.795
278.133
242.571
228.017
388.275
290.872
400.943
332.531
340.515
455.47
503.062
502.832
531.407
448.523
427.715
379.662
594.499
611.903
472.935
491.753
631.925
628.638
821.009
927.441
805.217
768.2
834.099
745.634
807.024
1283.38
1180.91
1453.75
1385.25
1492.83
1430.83
0.89007
1.61317
1.49827
1.4598
1.41379
1.35988
1.32535
1.29072
1.18042
1.18376
1.18352
1.18498
1.21484
1.26202
1.24565
1.22496
1.21255
1.19833
1.23199
1.2533
1.23239
1.25515
1.24466
1.26406
1.21315
1.27053
1.28472
1.43087
1.25582
1.28048
1.92729
1.60204
1.68134
1.45131
2.26584
2.70952
2.81908
461.718
187.93
2.96828
2.37688
9.06232
4.34424
41.7776
34.9238
22.9515
142.975
231.658
81.2023
1260.58
781.057
1930.57
1712.2
2233.21
2282.59
2497.34
2452.17
3.29706
20.3761
254.279
394.881
41.0847
148.931
413.959
329.863
325.709
438.782
344.949
274.509
602.002
411.69
540.982
576.309
579.241
583.892
581.536
505.805
496.485
622.391
596.174
604.258
626.527
752.562
708.497
724.295
730.446
747.95
716.138
856.415
645.28
696.857
875.795
836.849
790.247
804.103
931.357
930.905
1010.4
1012.36
1199.23
1053.8
1070.21
1307.28
1251.43
1303.58
1258.68
0.781668
0.836979
0.89319
1.51161
1.46198
1.44294
1.40826
1.39154
1.35813
1.31211
1.25438
1.28782
1.38025
1.40434
1.19916
1.18671
1.17878
1.18026
1.21525
1.19532
1.1911
1.2015
1.21512
1.20602
1.22683
1.22244
1.23845
1.22672
1.26203
1.31093
1.40598
1.45685
1.34596
1.83472
2.31678
1.59884
1.90873
2.58901
3.69522
2.86004
3.85918
7.54718
2.04497
913.445
534.844
37.9394
15.0291
152.67
88.3404
402.526
712.666
301.605
1812.72
1579.7
2289.93
2396.48
2719.72
2712.11
2.41622
12.8061
215.281
451.593
24.6514
97.8986
464.624
483.324
258.642
289.787
473.276
335.328
544.271
478.407
267.329
344.062
668.473
503.138
566.544
538.417
624.407
679.907
678.176
631.854
661.375
720.641
705.226
708.031
857.198
807.033
771.059
755.905
704.853
847.167
869.505
953.197
892.897
901.701
974.581
988.377
956.662
969.377
999.576
1016.46
1189.09
1142.03
1053.73
1180.35
1155.64
0.769979
0.791163
0.822755
0.890088
0.933495
1.44784
1.36857
1.35775
1.33361
1.33293
1.23058
1.2768
1.25674
1.30489
1.33148
1.31987
1.30181
1.32665
1.28939
1.28725
1.24439
1.2459
1.23089
1.19019
1.18799
1.18889
1.19276
1.22313
1.18838
1.19739
1.20447
1.21108
1.20839
1.22417
1.22854
1.26188
1.35412
1.2947
1.43024
1.57866
1.53326
1.68651
2.20717
2.722
1.90511
2.3029
3.33353
4.89671
15.2733
10.993
9.41798
21.5458
75.7992
65.9376
1708.24
1162.45
335.649
312.931
801.953
1251.89
769.21
2260
2455.73
2827.42
2994.4
1.95538
7.67033
164.031
428.401
14.3171
57.5916
439.857
556.65
313.5
255.495
544.12
424.485
359.283
293.966
242.571
246.842
564.127
543.044
306.54
428.572
351.354
433.534
542.426
627.402
607.834
596.671
558.788
567.559
511.524
708.446
705.111
591.508
515.918
543.23
530.325
719.212
766.793
974.334
1007.65
1004.4
985.582
990.932
1011.64
1029.68
987.047
994.39
1.32331
0.778934
0.786085
0.80613
0.83359
0.868081
0.933668
0.978536
0.801661
0.799765
0.834618
0.826239
0.874329
0.85774
1.20019
1.21132
1.15703
1.16992
1.10941
1.12627
1.05924
1.08142
0.918305
0.896947
0.96449
0.938545
1.01111
1.03354
0.984322
1.29945
1.28969
1.27294
1.28008
1.24856
1.23762
1.26403
1.25785
1.25578
1.24176
1.26506
1.21755
1.22071
1.17622
1.18212
1.22968
1.19292
1.21026
1.19137
1.20776
1.21015
1.20648
1.21302
1.21307
1.22404
1.23404
1.23271
1.23219
1.22934
1.32628
1.25616
1.48491
1.37513
1.57389
1.82975
1.73057
2.04108
2.67098
3.92655
2.41818
3.06027
4.51307
13.6057
162.339
100.764
193.58
42.9195
177.049
457.073
569.684
2306.2
1860.6
1134.14
1875.22
1214.23
2928.89
2984.19
1.54397
4.90671
413.419
102.388
196.383
8.69069
34.8288
563.445
596.229
367.437
280.791
588.921
457.242
638.693
238.575
235.142
227.402
422.467
366.639
215.422
255.267
283.481
236.712
375.728
438.184
399.158
355.191
375.475
329.606
388.09
315.701
400.742
254.024
337.308
237.601
321.494
552.479
990.652
950.12
683.244
938.701
895.174
1.2373
0.974009
1.01822
0.812872
0.821322
0.846418
0.879319
0.91795
0.831075
0.833045
0.85715
0.856481
0.891877
0.885094
1.13581
1.14849
1.09672
1.11245
1.05457
1.0721
1.01266
1.03321
0.931195
0.91825
0.970543
0.992875
0.954473
1.24802
1.23879
1.22896
1.24416
1.23665
1.20137
1.20682
1.19661
1.21977
1.16453
1.17085
1.12434
1.13403
1.23027
1.23168
1.23103
1.24251
1.23514
1.24225
1.24443
1.23753
1.24802
1.26803
1.25054
1.25265
1.24843
1.3791
1.30147
1.31067
1.63676
1.45558
1.74872
2.20313
2.08349
2.59092
3.55286
7.70972
3.16806
4.97323
9.84815
73.9644
581.746
733.298
513.779
751.676
199.806
633.157
1112.31
1416.92
1911.63
3117.51
2351.75
1.38829
2.19602
4.32058
234.513
483.902
58.204
143.022
14.7396
543.123
662.112
344.336
251.189
633.871
390.954
665.128
623.141
511.569
507.996
197.484
214.841
283.723
247.454
179.392
191.875
201.323
179.886
237.742
264.171
251.497
223.471
214.545
199.227
170.667
160.188
142.658
124.376
166.116
118.669
708.844
194.851
506.972
2929.46
1.02123
1.09636
0.926343
0.985347
0.848531
0.863868
0.894219
0.863241
0.866513
0.884451
0.885464
0.910987
0.909786
1.0879
1.10109
1.05086
1.0689
1.01246
1.03226
0.977417
0.999755
0.944653
0.967373
0.937159
1.20964
1.20819
1.20324
1.19714
1.15771
1.17084
1.16293
1.19196
1.1228
1.13472
1.08866
1.10001
1.23241
1.21769
1.25793
1.24768
1.32394
1.29698
1.3422
1.32936
1.27988
1.29681
1.34616
1.3058
1.2789
1.37922
1.29811
1.29846
1.52651
1.5202
1.84276
1.82333
2.61794
2.47067
3.95849
2.96787
5.65932
18.1521
4.4203
8.11879
52.255
253.806
504.372
1294.92
1409.78
1181.13
1232.41
1611.21
1963.89
2219.1
29.3431
1.17934
1.22249
2.01682
2.71309
8.90823
376.886
91.6306
184.807
625.206
436.737
230.095
299.223
634.187
654.245
319.845
410.428
664.047
607.534
527.021
419.945
171.521
194.335
187.615
178.239
153.369
157.355
152.091
152.945
156.302
166.761
118.74
122.032
95.7513
96.168
85.7818
82.9712
112.637
84.2654
1.001
1.06203
0.891126
0.91275
0.955911
0.896769
0.913366
0.914035
0.916622
0.932454
0.93481
1.05516
1.07045
1.01973
1.04279
0.989483
1.0109
0.962426
0.983653
0.957075
1.20642
1.18318
1.18143
1.18428
1.12978
1.14633
1.17926
1.14624
1.09631
1.11461
1.06782
1.08325
1.26476
1.24105
1.24063
1.30525
1.27981
1.41893
1.40553
1.39395
1.42645
1.54927
1.49979
1.50129
1.46423
1.43983
1.37241
1.33761
1.51313
1.45057
1.56301
2.04137
1.79353
3.34731
3.48324
2.43222
3.27487
5.41406
5.83013
23.8746
73.3546
19.5485
202.733
416.284
745.552
1413.58
1952.75
1974.5
2294.62
8028.76
136.882
1.10026
17.5412
45.8431
1.21723
1.31581
1.38503
2.22541
3.11353
7.99442
372.87
258.478
642.186
584.5
200.738
254.102
699.518
679.911
276.61
367.96
641.86
559.961
427.469
146.729
170.527
125.896
129.961
129.498
119.653
103.218
106.03
86
89.721
80.5139
81.7634
79.4801
82.2297
1.05235
0.934977
0.98007
1.01451
1.02569
0.932205
0.953258
0.943816
0.951634
0.958047
0.959537
1.03392
1.05668
1.00778
1.03025
0.981664
1.00498
0.980629
1.06155
1.17896
1.17792
1.18516
1.16167
1.13988
1.11595
1.1885
1.11464
1.09515
1.09131
1.25977
1.22247
1.28784
1.32967
1.33375
1.415
1.39749
1.55819
1.5987
1.65634
1.63114
1.85114
1.84168
1.78043
1.59548
1.55452
1.75574
1.71595
1.89053
1.8807
2.65605
2.54961
6.39064
6.57403
6.10669
4.61166
35.7149
26.2925
263.791
163.713
595.46
765.806
1122.78
1978.22
272.156
80.888
134.69
1.25402
1.17147
12.4393
38.6036
1.34466
1.62708
2.19756
2.65448
7.94814
551.22
429.631
715.155
694.724
176.606
232.064
728.887
653.253
532.405
417.859
274.585
125.226
145.496
97.8982
107.162
104.579
86.4618
90.1927
84.3617
84.9528
85.9961
87.6829
1.11733
1.18053
0.983551
0.997893
1.06981
1.14026
0.976475
0.990776
0.977257
0.990008
0.989312
0.995754
1.05683
1.03962
1.01758
1.03431
1.01198
1.25345
1.09514
1.0789
1.0786
1.16911
1.17902
1.14515
1.23417
1.187
1.15806
1.12807
1.34405
1.33135
1.42566
1.39178
1.52758
1.50953
1.72198
1.67147
1.92265
2.02232
2.53239
2.34029
2.2136
1.99875
1.91835
2.09326
2.08831
2.41744
2.49443
2.46311
5.29347
4.19855
38.857
13.0974
17.8926
10.3193
284.887
155.403
749.861
519.236
1064.75
943.142
417.515
191.937
282.805
63.0182
124.054
1.4359
1.27592
11.9026
32.5215
2.60687
1.52658
5.38719
676.866
581.296
757.584
774.623
237.916
173.915
144.469
736.553
544.132
440.052
309.734
254.389
102.06
116.78
87.1459
91.0252
85.7312
85.572
90.9562
89.4913
1.21409
1.32442
1.02642
1.08613
1.13835
1.25514
1.02515
1.05518
1.03564
1.0104
1.04915
1.04773
1.08204
1.05597
1.07428
1.33029
1.28839
1.14467
1.12967
1.14664
1.13444
1.19899
1.26821
1.18086
1.20502
1.17428
1.52681
1.51816
1.45057
1.66188
1.62498
1.8713
1.99167
1.94464
2.34829
2.28787
4.16577
3.21719
3.31592
3.00493
2.81793
2.70863
3.82436
3.86194
3.74875
3.38501
6.45085
23.6548
16.1375
200.239
90.112
94.2958
586.146
408.808
960.429
783.706
342.163
538.426
645.339
163.783
314.25
48.7976
114.631
1.45512
1.83304
7.57429
31.1405
2.02781
4.6125
794.949
768.165
795.371
775.61
851.091
149.881
174.93
115.957
660.559
503.229
333.853
280.197
171.013
87.375
97.334
85.3378
83.4522
91.4518
88.6001
1.35923
1.58096
1.10087
1.17365
1.25167
1.43244
1.11179
1.08665
1.14835
1.14366
1.14105
1.13665
1.12933
1.42728
1.32348
1.1992
1.21029
1.18002
1.23744
1.31062
1.25829
1.31314
1.25194
1.85168
1.76067
1.71795
1.57864
2.29027
2.59709
2.39899
2.61215
2.96763
2.79523
3.8956
3.33602
4.99409
5.47308
5.37785
3.63497
8.24685
8.53946
6.6229
75.4987
38.2104
201.352
183.301
507.874
399.045
798.842
707.679
365.534
547.737
677.069
165.418
323.565
45.0635
113.816
2.51562
1.83057
7.94185
5.32274
24.0417
672.112
890.108
880.655
890.132
814.813
864.34
702.822
898.863
126.718
97.0576