/*--------------------------------*- C++ -*----------------------------------*\
  =========                 |
  \\      /  F ield         | OpenFOAM: The Open Source CFD Toolbox
   \\    /   O peration     | Website:  https://openfoam.org
    \\  /    A nd           | Version:  8
     \\/     M anipulation  |
\*---------------------------------------------------------------------------*/
FoamFile
{
    version     2.0;
    format      ascii;
    class       volScalarField;
    location    "15000";
    object      p;
}
// * * * * * * * * * * * * * * * * * * * * * * * * * * * * * * * * * * * * * //

dimensions      [0 2 -2 0 0 0 0];

internalField   nonuniform List<scalar> 
4109
(
-0.00551911
-0.0177662
-0.00878843
-0.0287341
-0.0298719
-0.0185171
-0.0286842
-0.0146578
-0.0391911
-0.0396607
-0.0389825
-0.0429223
-0.00912348
-0.022874
-0.0317493
-0.0463231
-0.0506837
-0.0466952
-0.0450612
-0.0419497
-0.00271236
-0.0324332
-0.0327354
-0.0537401
-0.0545825
-0.0622125
-0.00304049
-0.00825868
-0.00559354
-0.0520188
-0.0455561
-0.0470222
-0.0299834
-0.0868695
-0.0618069
-0.0572068
-0.0622107
-0.0762185
-0.0165344
-0.00504407
-0.000180687
-0.0132442
0.000370367
-0.0560859
-0.0517972
0.0902583
-0.0558568
-0.0470809
-0.0550409
-0.0764275
-0.0682986
-0.0658419
-0.0716362
-0.0884018
-0.0239694
-0.0109661
-0.00519827
0.0150116
-0.00958219
-0.0210216
-0.0678249
0.0650813
-0.0616229
-0.0561838
-0.0523033
-0.0337098
-0.0585242
-0.0519308
-0.057727
-0.0536818
-0.105318
-0.0803938
-0.12561
-0.125501
-0.127078
-0.0299614
-0.0327597
-0.0231543
-0.0123313
-0.0206118
-0.0117983
-0.0150724
-0.0160058
-0.0261779
0.0156363
-0.206773
0.123734
-0.236276
-0.00806168
-0.0811814
-0.0712141
-0.0614958
-0.0557019
-0.0533365
-0.0540886
0.0316518
-0.0530289
-0.062013
-0.125362
-0.108773
-0.0978337
-0.139413
-0.137299
-0.145531
-0.151031
-0.0344375
-0.0374285
-0.0399138
-0.023063
-0.00477236
0.0639429
-0.0153719
-0.0156205
-0.0236614
-0.0302225
-0.578983
0.112123
0.0118661
-0.00549655
-0.309717
-0.120346
0.261546
-0.0882501
-0.0777295
-0.0695267
-0.0562367
-0.0550341
-0.0464356
-0.0744133
-0.0632862
-0.0569439
-0.119831
-0.111584
-0.148536
-0.133416
-0.178061
-0.166451
-0.041603
-0.0475722
-0.0504273
-0.0340272
0.00853355
0.0595795
-0.0129578
-0.0243095
-0.0271623
-0.0345404
0.0879764
0.0820171
-0.215339
-0.100484
-0.137515
0.0954456
-0.0861889
-0.0841184
-0.0756681
-0.060088
-0.0485968
-0.04372
-0.0396125
-0.00605048
-0.0286321
-0.108914
-0.0999406
-0.148008
-0.123331
-0.166224
-0.181389
-0.214672
-0.0519884
-0.0581098
-0.0627541
-0.0509191
0.00797281
0.0295661
-0.0198823
-0.0237482
-0.025911
-0.0427877
0.0191924
-0.158055
0.0162143
-0.0697025
-0.0838205
-0.0218413
-0.0802955
-0.0852307
-0.0723082
-0.0458572
-0.046023
-0.0281099
-0.013847
-0.0106978
-0.0929979
-0.100401
-0.138513
-0.1119
-0.157364
-0.185235
-0.216262
-0.256722
-0.0663105
-0.0724887
-0.0756658
-0.0670341
-0.0157326
0.00398395
-0.0100906
-0.0119407
-0.0241749
-0.0567923
-0.0928341
-0.103649
-0.0846911
-0.0154305
-0.0943451
-0.0462626
-0.0767799
-0.0781662
-0.0944546
-0.0487036
0.0960949
0.0668177
-0.0807194
-0.0858947
-0.127619
-0.0966647
-0.147246
-0.178745
-0.215533
-0.256285
-0.302545
-0.0824558
-0.0866527
-0.0872688
-0.0800856
-0.00853065
0.0294223
0.00992569
0.0132273
-0.0989596
-0.0381512
-0.073591
-0.0638595
-0.0630661
0.0545785
-0.13882
-0.208922
-0.052579
-0.0850044
-0.0603585
-0.0900516
0.06047
0.0675246
-0.0632609
-0.0654713
-0.111546
-0.0766336
-0.130944
-0.169762
-0.206447
-0.249016
-0.298298
-0.349481
-0.104214
-0.0950645
-0.0918158
-0.116299
0.0209791
0.101315
-0.0172968
-0.113202
-0.0906377
-0.0616318
-0.175195
-0.129473
-0.231204
0.063488
-0.197085
0.0101093
1.07809
-0.0565125
-0.0102338
-0.337551
-0.0964557
-0.0535668
-0.0290416
-0.0862011
-0.0442658
-0.108791
-0.152931
-0.196004
-0.237287
-0.285756
-0.333301
-0.370265
-0.382937
-0.113543
-0.116814
-0.108191
-0.13408
-0.13049
0.0198067
0.100882
-0.0553854
-0.107449
-0.0841877
-0.0650467
-0.222312
-0.0283598
-0.0483673
0.402683
0.0501046
1.08397
1.12372
1.13624
1.02864
1.02888
0.970465
-0.661621
-0.249114
-0.148089
-0.112455
0.0147445
-0.0463676
-0.0386938
-0.0805065
-0.131942
-0.17799
-0.371026
-0.226024
-0.271863
-0.322297
-0.394432
-0.400674
-0.41147
-0.38642
-0.136893
-0.13642
-0.153371
-0.148408
-0.125053
-0.025609
-0.0109068
-0.0909387
-0.103897
0.3354
0.118138
1.01262
-0.105033
1.19984
1.16357
1.16966
1.07775
1.19668
1.21865
-0.31469
-0.36226
-0.32932
0.946693
0.922021
0.993075
0.90967
1.01659
0.109462
0.164708
0.161046
0.0235212
-0.0273161
-0.399079
-0.104624
-0.108899
-0.155065
-0.204725
-0.359979
-0.26083
-0.31078
-0.437633
-0.418969
-0.424621
-0.437535
-0.427221
-0.437859
-0.166475
-0.159404
-0.17427
-0.165227
-0.142004
-0.122688
-0.0966711
-0.15345
-0.104098
0.778543
0.616184
1.2448
1.23207
1.15619
1.27705
1.30566
-0.247276
-0.192385
-0.194867
-0.484408
-0.319393
0.827177
0.812182
0.842589
0.942112
1.08285
-0.0892852
0.446098
0.435974
0.0324358
-0.0787594
-0.394242
-0.420834
-0.114467
-0.130846
-0.173665
-0.234251
-0.354234
-0.30269
-0.472944
-0.450993
-0.484047
-0.474531
-0.518021
-0.597335
-0.19789
-0.185694
-0.120151
-0.203098
-0.178616
-0.158255
-0.138451
-0.223422
-0.108684
-0.0777718
-0.104792
-0.263076
1.20502
1.32594
1.32303
1.23145
1.37111
1.40717
-0.797749
-0.0184146
0.188022
-0.081282
-0.0973185
0.629676
0.41035
-0.313564
-0.168634
0.716412
0.842819
0.987735
1.1651
-0.155419
0.0241039
0.132286
-0.0272259
-0.101538
-0.400919
-0.445759
-0.12874
-0.143979
-0.191629
-0.269365
-0.354371
-0.528253
-0.491327
-0.55281
-0.553407
-0.655037
-0.867362
-0.231932
-0.244758
-0.216002
-0.123049
-0.134635
-0.174449
-0.193959
-0.150521
-0.245261
-0.215772
-0.521876
-0.250497
-0.23959
-0.0475207
1.25016
1.23363
1.16547
1.42901
1.42568
1.32473
1.48584
1.5393
-0.632115
-1.19519
0.0453868
0.200361
0.0721735
0.402817
0.584343
-0.0990909
0.0133452
0.711792
0.870661
1.07812
1.27825
-0.257041
-0.225491
-0.229234
-0.0574452
-0.0468366
-0.10126
-0.41426
-0.477023
-0.136447
-0.160594
-0.225613
-0.323222
-0.539804
-0.597549
-0.643691
-0.666874
-0.869429
-1.17151
-1.45094
-0.269871
-0.282448
-0.145791
-0.140721
-0.165225
-0.185309
-0.209499
-0.281828
-0.242538
-0.202738
-0.0787288
0.366413
1.32562
1.3023
1.23979
1.07003
1.16185
1.54986
1.55075
1.43836
1.59975
1.63095
-0.393895
-0.997905
-1.7126
0.550732
0.253626
0.353296
0.129811
0.184891
0.731263
0.967492
1.22459
1.41146
0.302625
-0.185559
-0.252059
-0.261189
-0.101033
-0.0211849
-0.0519428
-0.394006
-0.477853
-0.198449
-0.135125
-0.285661
-0.567947
-0.663817
-0.756084
-0.829786
-1.09977
-1.38819
-1.76778
-2.05778
-0.315344
-0.320799
-0.120827
-0.147892
-0.166047
-0.187214
-0.223596
-0.317978
-0.283345
-0.244874
-0.0486664
0.0239497
1.43186
0.967924
1.34163
1.27479
1.14733
1.67643
1.68075
1.56808
1.72245
1.73618
1.70149
-0.110398
-2.17659
-0.695692
-1.36902
0.337194
0.548045
0.369705
0.825009
1.15494
1.38501
1.5622
0.0282292
-0.113638
-0.173777
-0.141456
-0.0749061
0.0940027
0.0348835
-0.481329
-0.371479
-0.264241
-0.182405
-0.601592
-0.736724
-1.0026
-0.872854
-1.30747
-1.9669
-1.62627
-2.26195
-2.49961
-0.359581
-0.356528
-0.35573
-0.134697
-0.155801
-0.195311
-0.246861
-0.321025
-0.282294
-0.0871908
-0.073293
1.55511
1.43173
0.823079
0.955805
1.33533
1.21935
1.04426
1.79477
1.78982
1.70888
1.84584
1.84018
1.8166
0.159247
-2.72869
-0.336197
-1.78264
-0.950527
0.495326
0.65858
0.39438
1.02791
1.33454
1.55787
1.73
0.0200511
-0.0201925
-0.098124
-0.101835
0.0297695
0.178753
-0.00185322
-0.511129
-0.358583
-0.268544
-0.680233
-0.835978
-1.16719
-1.00309
-1.5554
-1.96329
-2.32566
-2.7347
-3.09666
-0.400914
-0.393531
-0.396052
-0.364774
-0.142051
-0.163169
-0.218357
-0.281007
-0.323136
-0.0767723
-0.0420985
1.67769
1.58287
1.51706
1.41454
0.634654
0.815296
0.926387
1.2924
1.15708
1.00559
0.42215
1.88452
1.87225
1.79088
1.85981
1.95484
1.91877
1.95464
0.0572462
-2.27487
-0.508139
-1.31439
0.657098
0.862857
0.429392
1.91286
1.22044
1.53122
1.75981
0.0455967
-0.0417528
-0.0818372
-0.0519663
-0.163499
0.0330181
0.0559763
-0.533429
-0.34541
-0.895966
-0.758078
-1.31817
-1.66336
-1.15496
-2.21125
-2.84225
-3.36268
-0.416233
-0.449812
-0.444697
-0.415483
-0.373138
-0.156816
-0.182079
-0.254312
-0.32435
-0.077081
-0.0296383
-0.396553
-0.339527
1.69514
1.61901
1.50279
1.37955
0.643374
0.811353
0.945361
1.23294
1.08883
0.456334
0.208071
0.00842503
-0.159867
-0.274326
1.91063
1.94409
1.8787
1.80038
2.09566
2.00663
2.0367
2.00002
-0.0355468
-1.73923
-0.792497
1.04824
0.783973
0.64222
0.382504
2.20316
1.98363
1.44654
1.7803
0.0311312
-0.110541
0.0176723
0.4983
-0.351046
-0.0489837
-0.724603
-0.493334
-1.56037
-1.15065
-1.92887
-2.7884
-3.50372
-0.464234
-0.490548
-0.474089
-0.433735
-0.378897
-0.177083
-0.220508
-0.303534
-0.0573899
-0.0712919
-0.333948
-0.440396
-0.371048
1.71402
1.60606
1.47785
1.32228
0.661658
0.834375
1.00268
1.15677
0.497042
0.254717
0.334034
-0.330805
0.0552727
-0.244347
-0.113853
1.89919
1.96487
1.81806
2.03615
2.25047
2.12705
2.08114
2.38175
-0.247188
-1.14
1.28124
1.15728
1.02122
0.999782
0.319971
2.07151
2.34366
1.78103
0.219208
0.148267
0.901539
0.56627
-0.250998
-0.390958
-0.876904
-0.564799
-1.67066
-2.56244
-3.498
-0.51911
-0.532599
-0.505445
-0.451506
-0.36887
-0.22886
-0.280348
-0.0935752
-0.106785
-0.410983
-0.520161
1.83132
1.71873
1.58642
1.42847
1.23829
0.6917
0.884521
1.06008
0.535117
0.37882
0.189329
-0.416078
-0.367233
0.038584
-0.278002
-0.137334
1.92417
2.00411
1.94481
2.12186
2.55421
2.39933
2.23111
2.531
1.94682
-0.483656
1.71687
1.59074
1.4388
0.940356
0.234374
2.36226
2.20645
2.52617
0.198202
0.636235
2.16091
0.45842
0.476742
-1.23373
-0.768389
-2.15786
-3.33659
-0.587034
-0.58167
-0.54469
-0.462292
-0.29802
-0.36246
-0.155474
-0.14906
-0.521892
-0.62759
1.83644
1.71222
1.55028
1.33482
1.13106
0.739087
0.935423
0.573956
0.382135
0.187878
-0.503523
-0.441158
0.000196057
-0.33416
-0.183013
2.08372
2.02867
2.283
2.93888
2.71638
2.73413
2.55353
2.00289
1.88096
1.55931
0.983555
2.28391
2.72094
3.03323
0.12113
0.84957
-0.129432
-0.197982
-1.67404
-0.962906
-2.98701
-0.655658
-0.645763
-0.590369
-0.295486
-0.454068
-0.346303
-0.648107
-0.720341
1.69419
1.84748
1.45838
1.20401
0.998492
0.78348
0.603279
0.395163
0.171198
-0.626271
-0.554681
-0.0555631
-0.432166
-0.262164
2.13771
2.2339
2.52645
3.24884
2.98231
2.83347
3.49521
2.04462
2.12933
1.73263
2.66902
3.11726
3.54216
-0.208072
0.0814245
0.121537
-0.195102
-2.39538
-1.35317
-0.7461
-0.717164
-0.486972
-0.603255
-0.620943
-0.760491
-0.842779
1.63029
1.82898
1.32166
1.07376
0.837284
0.638481
0.401889
0.141192
-0.753671
-0.684969
-0.12017
-0.550493
-0.357182
2.25315
2.42308
2.80927
3.51108
3.17325
3.92374
2.02949
2.44912
3.13024
3.71755
4.23675
-32.1606
-0.23958
0.284678
0.336543
-0.404088
-31.4204
-0.852497
-0.764753
-0.888816
-1.00582
-0.709509
-0.912057
-0.993445
1.75139
1.51223
1.19665
0.91028
0.689391
0.412359
0.106015
-0.924125
-0.853484
-0.19832
-0.699539
-0.474863
2.65417
2.34253
3.29013
3.97101
4.59887
2.52074
2.07561
-34.2405
-32.1608
-0.147957
0.149631
0.19366
-29.3899
-31.2949
-31.6571
-0.989137
-1.04
-1.17252
-1.19754
-0.824935
-1.11763
-1.19048
1.71651
1.41368
1.03309
0.779243
0.4299
0.0515802
-1.17491
-1.09395
-0.311412
-0.638479
-0.905893
3.09205
3.90918
4.7334
2.93843
2.51728
2.0791
-35.2221
-34.3096
-32.1615
-0.503886
-28.799
-31.0352
-33.8523
-30.8684
-1.32368
-1.49511
-1.54134
-1.34409
-1.42998
-1.46557
1.64132
1.2432
0.941269
0.470015
-0.00761625
-1.56708
-1.43719
-0.449015
-0.843104
-1.17662
3.75832
4.71494
2.85152
3.50994
2.52585
2.06904
-36.0575
-35.3689
-34.3432
-32.1455
-34.917
-27.3715
-28.5574
-30.7824
-33.988
-30.6565
-1.76585
-1.98077
-2.32041
-1.92787
-1.76927
-1.9392
1.51359
1.01727
0.454129
-0.102829
-2.15646
-1.86643
-0.628253
-1.10131
-1.51613
4.54759
3.21388
4.20036
2.76772
2.20232
-36.0675
-35.4936
-34.3595
-32.1252
-33.7242
-35.1574
-27.5158
-27.3729
-28.4289
-30.5552
-33.9019
-30.6419
-2.30499
-2.89573
-2.43824
-2.5637
-2.6999
1.60738
1.00503
0.377151
-0.258462
-2.53292
-2.25133
-0.862571
-1.40878
-1.88464
3.72432
3.13598
2.45531
-38.6467
-35.9425
-35.5801
-34.3694
-32.1021
-33.7929
-35.3204
-25.4046
-27.5541
-27.3421
-28.3368
-30.348
-33.7768
-30.5617
-3.21643
-3.36468
-3.41146
-3.36269
1.74574
1.00952
0.259406
-0.472743
-3.13237
-2.766
-1.15601
-1.77308
-2.31522
-41.4811
-38.7537
-35.8261
-35.6415
-34.3808
-32.0795
-33.9286
-35.4798
-24.974
-25.4235
-27.584
-27.2939
-28.2645
-30.1629
-33.633
-30.3937
-46.1743
-41.6709
-38.8261
-35.7392
-35.6866
-34.3947
-32.0565
-34.0427
-35.652
-20.9993
-25.1543
-25.4387
-27.5875
-27.267
-28.1927
-30.0439
-33.4849
-30.192
-48.8747
-46.0091
-41.7767
-38.8864
-35.6809
-35.7219
-34.411
-34.1286
-35.8412
-25.3309
-20.8015
-25.287
-25.4379
-27.572
-27.2563
-28.1161
-33.3655
-94.0856
-48.4132
-45.9735
-41.8506
-38.9157
-35.6428
-35.7446
-34.1787
-36.0156
-20.0813
-26.112
-20.8103
-25.3514
-25.4364
-27.5472
-27.2622
-33.3121
-30.7282
-103.371
-47.27
-46.0215
-41.9058
-38.9211
-35.6235
-34.1795
-21.6754
-20.2008
-26.9366
-20.8395
-25.3761
-25.4369
-27.5222
-27.2691
-44.773
-31.1438
-112.308
-46.0137
-46.0926
-41.9337
-38.9102
-34.1488
-20.9367
-21.742
-20.2701
-27.7227
-20.8744
-25.3783
-25.4436
-27.5126
27.2892
-52.3664
-30.8427
-120.37
-44.7435
-46.1549
-41.9388
-38.8858
-20.8894
-20.8942
-21.8203
-20.3414
-28.4514
-20.9191
-25.3719
-25.4516
34.8892
30.3873
-60.8395
-30.3291
-127.468
-43.458
-46.1515
-41.9208
-20.4705
-20.8337
-20.8538
-21.8754
-20.4272
-29.1575
-20.9479
-25.381
47.2594
35.9791
33.5036
-68.6912
-29.6913
-134.163
-42.2793
-46.0791
-20.4774
-20.4018
-20.7791
-20.8198
-21.9137
-20.524
-29.8406
-20.9376
49.9575
48.1225
37.1031
35.8221
-75.8297
-28.8938
-141.175
-41.4788
-20.9044
-20.4062
-20.3285
-20.7261
-20.7941
-21.9418
-20.6186
-30.2663
49.8846
50.5091
49.0274
38.0314
37.7646
-82.8338
-28.1547
-146.459
-20.9525
-20.8464
-20.3313
-20.2606
-20.6761
-20.7748
-21.9635
-20.6873
47.4731
50.4768
51.1214
49.7577
38.9257
39.5725
-90.6235
-28.0468
-21.6907
-20.9072
-20.7904
-20.2624
-20.2006
-20.631
-20.7592
-21.9781
34.5059
48.1989
51.0673
51.6769
50.3462
39.888
41.3599
-97.227
-20.0366
-21.7618
-20.8659
-20.7357
-20.2015
-20.1488
-20.5959
-20.7477
27.0185
35.5501
49.0574
51.6049
52.1624
50.8353
40.904
42.6109
-25.3292
-20.1214
-21.8409
-20.8313
-20.6837
-20.1489
-20.1103
-20.5788
-43.699
29.9414
36.6495
49.7615
52.0785
52.5903
51.2144
41.5735
-20.9958
-26.1649
-20.1842
-21.8975
-20.8056
-20.6365
-20.1097
-20.0926
-29.8516
-51.3052
32.8545
37.5406
50.3306
52.497
52.9459
51.4326
-24.887
-20.789
-27.0016
-20.2517
-21.9378
-20.7864
-20.5995
-20.0916
-94.0937
-30.3228
-59.6555
34.9504
38.3906
50.795
52.8442
53.1472
-25.3643
-25.0676
-20.7905
-27.7872
-20.3322
-21.9686
-20.7708
-20.5816
-49.0277
-103.797
-29.8928
-67.3195
36.6985
39.3256
51.1626
53.0406
-27.5206
-25.3889
-25.1953
-20.8175
-28.5138
-20.4217
-21.9928
-20.7592
-45.7823
-48.5017
-112.852
-29.1967
-74.2471
38.3691
40.282
51.3733
-27.2573
-27.5459
-25.4045
-25.2543
-20.8526
-29.2167
-20.5113
-22.0086
-41.6611
-45.6417
-47.3039
-121
-28.3837
-81.0739
39.9888
40.8824
-30.587
-34.3103
-27.2647
-27.5754
-25.4053
-25.2755
-20.8965
-29.8865
-20.5737
-38.3514
-41.83
-45.6352
-46.0413
-128.199
-27.4499
-88.5956
41.2301
-28.2287
-30.5199
-34.3408
-27.2334
-27.5809
-25.4053
-25.272
-20.9236
-30.2996
-33.9224
-38.4745
-41.9252
-45.7052
-44.7709
-134.984
-26.6173
-94.9837
-34.6804
-31.0223
-27.9105
-30.5907
-34.2712
-27.1849
-27.567
-25.4075
-25.2643
-20.9128
-33.8205
-38.5565
-41.9994
-45.7965
-43.4954
-142.1
-26.4808
-35.0385
-35.859
-31.8102
-30.8226
-27.7925
-30.5462
-34.1891
-27.1582
-27.5436
-25.4144
-25.2713
-35.2974
-34.1271
-33.939
-38.6223
-42.0549
-45.873
-42.3102
-147.467
-35.2165
-35.9064
-31.764
-30.5506
-27.6919
-30.4147
-34.0802
-27.1515
-27.5203
-25.4233
-35.3822
-34.2029
-34.0657
-38.6563
-42.0892
-45.8778
-41.5523
-35.363
-35.7989
-31.7298
-30.3096
-27.6173
-30.2267
-33.9625
-27.1556
-27.5106
-35.5
-34.2109
-34.162
-38.6682
-42.1003
-45.8089
-35.5195
-35.6823
-31.7014
-30.0963
-27.5685
-30.0186
-33.8712
-27.1615
-35.5903
-34.2184
-34.2185
-38.6592
-42.0863
-35.6927
-35.5932
-31.6737
-29.8985
-27.5179
-33.8363
-35.6549
-34.2255
-34.2256
-38.6367
-35.8544
-35.5347
-31.6446
-29.728
-27.4522
-35.7022
-34.2365
-34.1966
-35.4977
-31.6109
-29.6172
-35.7393
-34.2521
-35.479
-31.5876
-35.7643
-34.2689
-3.24513
-3.62977
-3.68176
-4.19539
-4.17316
-4.74229
-3.1746
-3.64114
-2.71812
-3.96085
-4.02776
-4.58078
-4.66992
-5.33339
-5.33492
-6.00212
-8.06278
-8.83012
-8.8918
-9.80709
-9.62899
-5.98229
-6.65935
-4.71083
-5.32967
-3.55932
-4.09165
-2.60551
-3.01672
-2.13421
-10.5593
-10.1932
-4.15191
-4.33871
-4.93466
-5.042
-5.65418
-5.8701
-6.63395
-6.65992
-7.42493
-7.36646
-8.07737
-8.82668
-9.61125
-9.60108
-10.4409
-10.6219
-11.6238
-11.5179
-6.60355
-7.31902
-7.28646
-8.07628
-8.00807
-8.79679
-9.28435
-5.21482
-5.84579
-3.91247
-4.47439
-2.8349
-3.26591
-1.94124
-2.27224
-1.46053
-8.66653
-9.06786
-12.4869
-13.4074
-10.1283
-10.9174
-11.8828
-4.23588
-4.46997
-5.09276
-5.33369
-6.03193
-6.14154
-6.88382
-7.18157
-8.00957
-8.09252
-8.88797
-9.65957
-10.5005
-10.4566
-11.2955
-11.2502
-12.2175
-12.3844
-13.0861
-13.4104
-14.5088
-14.0184
-14.8915
-5.6873
-6.47164
-6.57909
-7.25713
-7.45028
-4.26812
-4.88907
-3.01121
-3.50607
-2.01501
-2.36144
-0.70279
-1.18457
-1.44885
-7.11978
-7.89165
-7.63986
-8.79024
-10.1567
-14.4677
-12.5274
-13.918
-11.3881
-12.5553
-4.14829
-4.49678
-5.1613
-5.45532
-6.17902
-6.4781
-7.2084
-7.41121
-8.22338
-8.49647
-9.17838
-9.66136
-11.2039
-10.8264
-12.2281
-12.2427
-13.31
-13.2354
-13.8718
-14.6578
-15.1213
-15.1811
-16.0951
-15.8087
-15.6502
-16.2119
-16.3388
-17.5349
-4.90427
-5.7269
-5.32939
-6.04353
0.14231
-0.339949
-3.35033
-4.08302
-2.02804
-2.50805
-0.515829
-1.08542
-1.35597
1.03106
0.585444
-5.66679
-6.45757
-6.3113
-18.6723
-17.6039
-19.3068
-7.66411
-8.97238
-10.2669
-11.4445
-13.7278
-14.8603
-16.5312
-15.8709
-12.6978
-13.7837
-3.91224
-4.33689
-5.05578
-5.45693
-6.21551
-6.55364
-7.31435
-7.63686
-8.7338
-8.40614
-9.61481
-9.81138
-10.7125
-11.2719
-12.8865
-12.3658
-13.8309
-13.9479
-14.6315
-15.2083
-15.0767
-20.6333
-21.0433
-19.789
-16.1815
-15.9514
-16.9397
-16.8994
-17.2553
-18.0614
-17.6494
-19.7809
-19.0372
-29.4173
-30.1364
-29.7962
-32.4017
-31.2301
-30.7652
-30.9951
-30.6787
-3.67658
-4.2611
-3.71769
-4.40396
0.510715
-0.059682
-2.11632
-2.69112
-0.253454
-0.940918
-1.26676
1.92348
1.54967
1.57431
1.06398
-3.94606
-4.83186
-7.66706
-4.49077
-6.01434
-29.1125
-27.5408
-23.5049
-22.7473
-21.3689
-16.9848
-18.3777
-19.1461
-20.5971
-7.88544
-8.98668
-8.83945
-10.371
-11.7033
-13.0068
-14.3086
-15.1302
-16.5028
-29.8189
-30.7809
-32.332
-30.6937
-32.1286
-33.79
-32.6391
-31.7945
-33.0573
-32.8791
-3.38844
-4.00653
-4.81706
-5.31523
-6.13865
-6.56656
-7.48038
-7.76963
-8.56977
-8.84781
-10.2388
-9.76949
-11.092
-11.2495
-12.263
-12.8363
-12.8748
-14.2131
-13.8036
-14.9753
-15.6828
-15.6309
-16.6542
-16.7341
-16.3699
-21.9892
-22.9075
-25.0267
-24.1638
-21.6479
-20.7344
-17.6765
-17.7562
-18.3614
-18.6286
-20.6005
-19.4097
-19.0862
-25.618
-27.6003
-27.1665
-27.7152
-27.0944
-29.1816
-29.4245
-30.0073
-32.0804
-31.1054
-31.5448
-31.2634
-31.6517
-31.7626
-32.3041
-31.9941
-31.5389
-31.6601
-2.04627
-2.55554
-1.84115
-2.54045
1.00999
0.317679
0.147279
-0.661542
-0.967114
2.7647
2.45257
2.58172
2.15468
2.24402
1.69505
-1.70263
-2.3286
-3.64556
-3.97616
-5.50853
-6.40397
-2.94103
-24.7501
-27.1935
-26.1126
-29.9356
-28.611
-24.0378
-25.2232
-23.4106
-21.4475
-6.46776
-21.1916
-17.4101
-19.7804
-18.742
-7.54755
-8.52433
-10.0698
-10.5597
-12.1244
-12.5728
-14.3571
-15.3478
-17.1004
-30.0293
-30.8995
-29.8935
-32.8765
-32.5954
-34.1703
-32.3527
-32.2084
-31.4059
-31.9423
-33.1755
-32.8701
-2.72573
-3.36984
-2.13787
-2.1954
-4.32748
-5.03572
-6.00485
-6.48478
-7.49541
-8.02847
-9.11371
-9.23186
-10.5246
-11.3714
-10.2518
-12.0103
-12.6114
-13.563
-14.0838
-14.8983
-13.5535
-14.0912
-15.5844
-15.6221
-15.6474
-16.4631
-16.3384
-16.4362
-16.4214
-17.1679
-17.2782
-17.9827
-18.3474
-22.5812
-23.5679
-24.6446
-24.0203
-22.257
-21.5687
-19.3119
-19.6169
-21.3984
-20.4241
-20.3358
-25.4583
-25.1058
-25.5129
-28.2883
-27.1454
-29.0008
-28.7758
-30.4636
-27.5595
-30.0243
-30.292
-31.7319
-31.3442
-30.9965
-32.2425
-30.3119
-31.4076
-0.444527
-0.24875
-0.652732
0.028464
1.68523
0.927188
0.735888
0.289654
3.58234
3.34692
3.60367
3.24958
3.45458
2.96522
3.07646
2.41758
4.30771
4.16577
4.89183
4.91468
5.47961
5.33382
1.08741
-0.512291
-1.29636
-1.33791
-5.18766
-3.44428
-1.57066
-0.791757
-28.6179
-28.1945
-26.5837
-22.4403
-25.6983
-24.2353
-4.90151
-6.65101
-8.4241
-22.7342
-18.5885
-21.1639
-19.9414
-10.1761
-11.2337
-12.7495
-13.2517
-14.8719
-15.4194
-17.4211
-28.9555
-32.6816
-33.3088
-32.1844
-31.2116
-34.2024
-35.2119
-34.3789
-35.1924
-33.0224
-33.006
-33.5834
-34.3226
-33.9374
-1.31275
-1.82419
-4.31535
-4.36966
-3.12913
-3.72918
-5.68911
-6.2463
-8.04765
-8.09338
-9.1906
-9.66576
-11.2701
-11.2221
-12.1076
-12.6955
-13.6613
-13.9833
-14.9073
-14.7496
-15.5
-16.1024
-17.0245
-16.6797
-17.3037
-16.9662
-17.6789
-17.7143
-17.9425
-17.8729
-18.6599
-19.0001
-19.6475
-20.0241
-24.1688
-22.914
-23.7961
-23.2242
-22.2193
-20.6227
-21.6083
-21.042
-21.4538
-26.3346
-24.8985
-27.4013
-25.8806
-27.8955
-28.1145
-27.4115
-31.0251
-28.8597
-32.9073
-31.0278
5.53863
5.80875
0.938856
1.14342
2.43996
1.68998
1.82241
2.12668
2.42308
4.50835
4.21129
4.5156
4.12576
4.39813
3.88201
4.12929
3.45854
5.35352
5.21123
6.02194
6.03294
6.63201
6.4433
2.96332
2.53647
2.46797
0.684234
-3.09594
-1.52746
0.147998
1.39574
-24.7219
-26.7388
-27.9297
-3.17447
-5.20621
-7.07095
-9.1226
-10.9842
-22.591
-24.4219
-18.8671
-21.6965
-13.0081
-14.2183
-16.3997
-16.8137
-19.052
-28.812
-31.0343
-30.5992
-33.736
-31.2428
-32.8298
-34.6328
-34.6338
-35.3518
-33.4092
-34.4577
-34.6938
-35.1008
-33.9225
-1.11831
-3.10706
-2.2826
-1.92857
-2.37057
-4.07284
-4.97167
-5.35329
-4.07533
-5.21378
-7.91367
-8.15596
-9.57268
-9.04669
-11.9352
-12.1798
-14.3217
-13.2923
-13.2717
-14.0632
-14.2788
-15.3028
-15.6115
-16.3175
-16.7345
-17.7492
-18.3061
-18.2087
-17.9838
-18.5692
-18.6849
-18.2513
-19.5199
-19.4315
-19.4524
-19.9139
-21.3376
-24.7064
-24.2758
-23.2629
-22.0764
-21.5009
-22.9158
-22.5885
-22.0517
-25.5387
-25.4109
-27.3637
-26.4993
-27.6453
-27.7668
-27.8837
-27.582
5.546
5.92716
6.58898
6.93021
3.64188
3.01921
3.33207
4.38195
4.28377
5.67176
5.3943
5.84877
5.26851
5.54022
4.88502
4.99268
6.48956
6.5966
7.33995
7.29564
8.01679
7.68691
6.15543
4.91588
4.23746
3.41185
4.65508
7.65292
-1.37961
0.282031
2.42128
4.09814
-1.22596
-28.5552
-26.4162
-2.96872
-5.25869
-7.44257
-9.7691
-12.8417
-14.9458
-14.4496
-21.3288
-25.9658
-23.6179
-17.8029
-18.3742
-20.9805
-31.9801
-29.9538
-35.0318
-33.5778
-35.6333
-35.6661
-36.1401
-35.2607
-35.3751
-34.0486
-2.9621
-2.40507
-2.71716
-3.80256
-3.92585
-3.30209
-4.04255
-5.79546
-6.84148
-8.02695
-6.40373
-8.10571
-8.09363
-8.95369
-12.9766
-12.2159
-13.7254
-13.8917
-16.7799
-15.0193
-14.8972
-14.174
-16.1546
-17.6017
-17.1327
-18.3568
-18.5461
-18.3322
-19.1658
-18.3605
-19.501
-20.0018
-20.0558
-18.8724
-20.6493
-20.0526
-20.5535
-21.728
-22.7596
-25.7709
-25.0404
-21.8367
-21.9586
-22.8668
-22.4153
-25.9948
-25.8125
-27.0511
-26.2271
-27.5473
-26.9707
-3.52491
-3.5883
5.33699
5.84536
6.47937
6.94265
7.66377
8.21514
5.93662
5.79165
6.73554
7.8132
8.42259
7.10368
6.82587
7.31704
6.60143
6.98199
8.0885
8.08841
8.91673
8.82792
9.67015
9.11294
9.63658
7.68095
6.26792
6.63208
10.3763
9.55542
1.01718
2.95479
5.67297
7.2817
1.3421
-0.672628
-2.80602
-32.4293
-28.7012
-5.76915
-8.80982
-12.1704
-14.4246
-18.3601
-19.7893
-23.5396
-27.3408
-30.386
-25.0975
-37.6117
-35.1154
-38.4314
-38.7238
-39.1211
-37.9512
-38.9961
-38.1503
-4.27633
-4.01017
-5.15728
-5.22584
-6.07586
-5.42197
-6.28719
-7.71725
-8.60462
-9.70889
-8.44322
-9.70271
-13.7131
-11.0131
-12.1945
-13.1298
-14.118
-14.0927
-15.2802
-17.5616
-16.0607
-17.4376
-15.8988
-18.7115
-18.0484
-20.3104
-18.75
-19.6383
-18.9491
-19.1242
-19.0119
-20.0045
-20.396
-20.3489
-20.5155
-20.1571
-21.3193
-21.1484
-21.8482
-22.1376
-23.383
-22.3041
-24.3935
-23.4758
-23.6317
-25.208
-24.9415
-25.5714
-25.0498
-3.97005
-4.14367
-4.96338
-4.97797
4.89108
5.49143
6.07473
6.64272
7.29595
7.96294
9.50862
8.81022
4.26664
4.884
10.5916
10.208
8.37154
8.90329
8.8979
8.56615
9.14961
10.0817
9.89398
10.8808
10.6275
11.2732
10.4374
12.0951
12.5903
13.4407
12.5766
9.3492
10.3818
6.2793
4.27475
10.6627
9.09108
5.24559
2.7145
-1.24735
3.59491
-4.1737
-6.89077
-37.5709
-33.8662
-11.2018
-15.7018
-22.5578
-24.4008
-33.5529
-38.4795
-32.8059
-39.9268
-40.0483
-41.5765
-41.0212
-42.2992
-40.9859
-5.83026
-6.27347
-6.93999
-7.09997
-8.14653
-7.57064
-9.01215
-9.86116
-10.8734
-11.9156
-10.8854
-11.9209
-14.8386
-13.8811
-13.1846
-14.1659
-17.768
-14.9692
-15.3115
-16.9446
-16.4432
-18.205
-17.5121
-17.8081
-17.834
-19.3102
-18.8081
-19.9193
-20.1045
-19.7024
-19.7767
-19.4917
-19.456
-20.4412
-20.6102
-20.6776
-21.014
-20.4431
-20.6852
-20.2821
-21.8147
-21.3273
-23.5978
-22.4416
-24.7818
-23.5264
-21.8613
-25.0628
-24.5621
-4.2569
-4.4879
-5.19066
-5.41239
-6.18006
-6.3903
5.38573
6.07017
6.6248
7.36396
10.8192
9.01122
9.97634
8.13393
3.53247
4.12771
4.52503
5.22393
2.72011
3.31084
1.86
2.43012
12.5956
11.2462
10.866
11.8508
11.117
11.9151
12.3872
12.0622
13.2512
12.4732
12.7795
12.0869
11.9022
14.0724
15.0205
15.2623
16.5418
15.9666
13.7409
13.0863
10.0368
8.11611
14.4173
13.0864
8.90743
6.51231
-0.349451
-5.24189
6.45015
2.57603
-8.62485
-14.0314
-45.3826
-42.8008
-23.2488
-31.7276
-40.8428
-46.2265
-39.7541
-46.3901
-44.3263
-46.4217
-46.0739
-7.35086
-8.14333
-10.2961
-10.3692
-9.39559
-9.40684
-11.1457
-12.1632
-13.0782
-13.9281
-13.4554
-14.1662
-16.0159
-15.0039
-14.7012
-15.2918
-18.0249
-17.8705
-16.9289
-18.3724
-16.9263
-17.4169
-18.6633
-18.9671
-18.2199
-19.4501
-19.4335
-20.6732
-20.2634
-20.2608
-20.1876
-20.1314
-20.7563
-20.7182
-20.5463
-20.7294
-20.6226
-20.4002
-21.1861
-20.5724
-21.2647
-23.6304
-21.4523
-21.7747
-25.1508
-21.6837
-7.76035
-4.21426
-4.51008
-5.23211
-5.57715
-6.32692
-6.63645
-7.32746
-4.18875
-4.47577
-3.99112
-4.35324
-3.66292
-4.06681
0.999056
1.49217
0.142154
0.564454
-0.693755
-0.320196
-1.44544
-1.16746
-3.25897
-3.70227
-2.7256
-3.1919
-2.12844
-1.92273
-2.60476
5.69237
6.54653
7.17843
8.15371
10.0917
11.0194
8.9783
3.60309
4.2966
4.67346
5.43412
2.59105
3.24978
1.52315
2.12774
10.8858
13.5837
14.9969
13.7226
14.2229
13.8424
15.3951
14.7662
15.8235
14.9618
13.1415
13.3441
11.8686
16.4352
16.7984
17.1455
18.4875
18.3604
20.0833
20.0827
17.727
17.2756
14.3931
12.3278
18.9187
17.5809
12.6334
9.78311
-10.5694
-1.36776
-9.02072
8.35123
2.85224
-20.5376
-24.8475
-47.8459
-50.2377
-35.6415
-65.9554
-55.8799
-54.2268
-46.8715
-8.80606
-9.57448
-11.7077
-11.8962
-12.0014
-10.7195
-11.4631
-13.5257
-13.9987
-15.1053
-15.3907
-15.0089
-15.9801
-15.6783
-16.3754
-17.1842
-16.2446
-19.4188
-18.8705
-17.725
-18.082
-18.8895
-18.5392
-19.5032
-19.4506
-20.3918
-20.4008
-20.5671
-20.4645
-20.9421
-20.9286
-20.8457
-21.155
-20.8819
-20.966
-20.9343
-20.6338
-21.049
-20.6351
-20.4812
-24.7727
-20.7003
-9.10882
-7.58531
-8.39452
-5.12833
-5.53789
-6.25205
-6.64439
-7.31492
-4.9025
-5.30014
-4.6185
-5.06391
-4.20726
-4.68191
0.489953
1.00559
-0.481983
-0.0621117
-1.43884
-1.06265
-2.2363
-2.0147
-3.65964
-4.17251
-3.00655
-2.78958
-3.55147
5.86939
6.89494
7.45306
8.72925
9.54672
3.47637
4.25549
4.52059
5.42498
2.19405
2.91415
0.879927
1.54869
8.93735
11.2178
9.77477
17.2367
16.9893
16.442
18.248
17.4576
18.0411
15.9722
14.3287
14.0964
12.2717
20.2373
18.9328
19.0958
21.9435
21.8786
23.9582
24.06
22.1722
22.3202
19.1248
17.0891
24.1468
22.6387
17.423
13.8314
-13.2537
-21.8265
-2.31571
-12.1782
11.0406
3.291
-29.0316
-30.7964
-40.6539
-88.0013
-80.2997
-10.0513
-10.6907
-11.6278
-12.7171
-13.4416
-13.2092
-13.2466
-12.6682
-16.0344
-16.6189
-17.2011
-17.2166
-16.4494
-17.7418
-17.0531
-17.8944
-18.2165
-18.5566
-18.2489
-18.067
-19.7449
-19.4137
-18.8826
-19.0865
-19.7506
-19.4554
-20.152
-20.4293
-20.6367
-20.6582
-21.1633
-20.998
-21.0315
-21.1513
-21.3846
-21.3436
-21.3908
-21.318
-19.9945
-21.5773
-20.8144
-30.128
-9.0463
-9.89738
-7.7339
-8.62823
-5.97544
-6.44476
-7.29661
-5.77311
-6.28789
-5.31413
-5.89556
-4.68259
-5.26906
-0.257326
0.223165
-1.33351
-0.914541
-2.38943
-2.01884
-3.21989
-3.03681
-4.02565
-3.85253
-4.61232
5.77066
7.01176
7.64117
7.18926
3.00269
3.8773
4.05501
5.09786
1.49489
2.27839
0.00926848
0.793834
9.28664
7.8399
11.601
10.0793
17.459
17.4229
21.0636
20.3161
19.6538
18.7278
21.3905
21.0709
12.4149
16.8165
15.2382
14.13
23.372
23.2517
25.8026
25.5241
27.0457
27.9105
26.5129
28.0009
24.0219
22.3174
28.749
27.52
23.6443
19.7126
21.4925
-18.9648
-28.7842
13.9319
-6.14033
-17.8469
-32.5726
-28.703
-13.8466
-10.2177
-11.0399
-11.7335
-12.7205
-13.5998
-15.9008
-14.4733
-15.3576
-17.6899
-17.2415
-18.7443
-18.8105
-17.2582
-18.573
-19.0888
-19.2025
-19.3573
-18.9377
-19.2445
-19.4968
-19.3922
-19.3498
-20.2188
-20.0201
-19.7584
-19.8366
-20.1559
-21.0416
-20.5716
-20.7584
-21.0867
-21.1023
-21.2512
-21.2449
-21.0494
-21.1656
-21.846
-21.1457
-9.09976
-9.81856
-7.19991
-7.74152
-8.63999
-6.60004
-7.23974
-5.9155
-6.57318
-5.18296
-5.85531
-1.20419
-0.72586
-2.43397
-1.98715
-3.54359
-3.24015
-4.37027
-4.22866
-5.05774
7.10404
5.3272
6.21047
5.82629
2.31135
3.19649
4.16701
3.38147
0.71181
1.52828
-0.999599
-0.214832
9.06669
7.08274
5.74484
11.3899
9.63877
17.9137
20.6873
19.5911
20.4569
24.9453
23.59
24.7845
22.6693
22.9451
14.954
12.4499
17.6613
16.3086
19.254
27.6072
27.1387
30.8488
33.3008
30.3944
31.1645
31.7615
32.4592
33.4302
28.7469
29.7141
29.8601
25.4765
27.0665
25.707
21.2491
-21.7828
-39.9736
-36.0729
-15.8438
-10.2824
-14.3938
-14.8894
-11.3081
-11.5963
-12.4473
-12.9849
-13.6764
-14.3173
-16.1851
-15.962
-17.5484
-17.2557
-19.7549
-19.7987
-18.7268
-18.9659
-20.194
-20.0083
-19.3664
-19.3418
-20.0049
-20.0885
-20.1299
-20.6582
-20.5181
-20.3386
-20.5563
-20.92
-20.7971
-21.0954
-21.0313
-20.9958
-20.972
-21.0146
-21.0535
-10.2834
-8.01032
-8.60274
-9.36357
-9.66745