/*--------------------------------*- C++ -*----------------------------------*\
  =========                 |
  \\      /  F ield         | OpenFOAM: The Open Source CFD Toolbox
   \\    /   O peration     | Website:  https://openfoam.org
    \\  /    A nd           | Version:  8
     \\/     M anipulation  |
\*---------------------------------------------------------------------------*/
FoamFile
{
    version     2.0;
    format      ascii;
    class       volVectorField;
    location    "15000";
    object      U;
}
// * * * * * * * * * * * * * * * * * * * * * * * * * * * * * * * * * * * * * //

dimensions      [0 1 -1 0 0 0 0];

internalField   nonuniform List<vector> 
4109
(
(10.1198 0.00051997 0)
(10.1223 0.000554856 3.80037e-21)
(10.124 0.00250651 0)
(10.1218 -0.000210396 -8.1947e-21)
(10.1242 0.00150684 3.94105e-22)
(10.1269 0.00237534 6.58224e-23)
(10.1278 0.00251622 -2.42373e-22)
(10.1334 0.00401917 0)
(10.1288 0.00239063 0)
(10.123 0.000391555 -2.81782e-21)
(10.125 0.00129469 3.42399e-21)
(10.1338 0.00314693 1.51315e-21)
(10.1364 0.00797757 2.2355e-21)
(10.1368 0.00429757 -1.00244e-22)
(10.1346 0.0033146 2.34168e-21)
(10.13 0.0022257 -8.78443e-22)
(10.1243 0.000620787 5.41649e-22)
(10.1267 0.00160591 6.36677e-23)
(10.1356 0.00323662 0)
(10.1404 0.00369868 -3.19186e-21)
(10.159 0.00816762 1.83745e-21)
(10.1427 0.0084241 -5.04222e-21)
(10.1466 0.00601208 -5.56626e-22)
(10.1312 0.00229564 -2.19988e-21)
(10.1285 0.00175798 8.96219e-21)
(10.1256 0.000841908 3.0331e-21)
(10.1329 -0.00212103 0)
(10.1362 -0.00228452 8.96076e-22)
(10.1404 -0.00217437 -6.43823e-23)
(10.136 0.00326155 0)
(10.1419 0.00324089 0)
(10.1465 0.00465087 3.87354e-21)
(10.221 -2.46623e-05 -1.01461e-21)
(10.1507 0.00705267 -7.08775e-21)
(10.1489 0.00602252 0)
(10.132 0.00233867 -1.58276e-22)
(10.1279 0.00153968 -8.9021e-21)
(10.1266 0.000752481 -4.94668e-21)
(10.1328 -0.00217059 -1.43105e-21)
(10.1249 -0.00161745 0)
(10.1421 -0.0030415 -1.31799e-22)
(10.1392 -0.0033358 4.88084e-22)
(10.1418 -0.00893324 -1.53051e-22)
(10.1365 0.00334564 -2.2257e-21)
(10.1421 0.00324074 0)
(9.48074 0.0260952 7.08788e-22)
(10.135 -0.000372369 3.79676e-22)
(10.1489 0.00467079 -1.3879e-22)
(10.1496 0.00403364 6.70979e-22)
(10.2167 -0.001054 4.61971e-21)
(10.1535 0.00533902 4.24438e-21)
(10.1308 0.00203306 -1.30023e-22)
(10.1292 0.00185218 -8.64347e-21)
(10.1281 0.00102502 1.94479e-21)
(10.1329 -0.00250409 -9.36677e-22)
(10.1266 -0.00186484 0)
(10.119 -0.000357816 0)
(10.1416 -0.00527432 1.35325e-22)
(10.143 -0.0041751 1.51202e-22)
(10.1389 -0.00347845 0)
(10.2401 -0.00276611 -1.44133e-22)
(8.88598 0.0142847 0)
(10.1362 0.00330652 -7.59582e-21)
(10.1427 0.0032436 0)
(10.1487 0.00440085 5.9626e-22)
(10.2461 -0.000858376 -3.86154e-22)
(9.74636 0.0280933 1.58138e-20)
(10.15 0.00375868 0)
(10.1508 0.00631934 -9.50013e-22)
(10.2301 -0.000417062 -5.813e-22)
(10.1298 0.00127666 2.60918e-21)
(10.1309 0.00226344 5.7651e-21)
(10.1355 0.00387975 0)
(10.1319 0.00140895 1.17995e-20)
(10.1331 0.00226751 -1.76075e-20)
(10.1339 -0.00284865 9.44709e-22)
(10.1284 -0.00195617 0)
(10.1266 -0.00176461 0)
(10.1205 -0.000467246 0)
(10.2207 0.00676002 1.69126e-22)
(10.1468 -0.00464877 7.82714e-22)
(10.1415 -0.00486489 -7.24885e-22)
(10.1451 -0.00361119 8.64686e-23)
(10.1395 -0.00389926 0)
(10.3543 0.0186128 1.21435e-21)
(10.258 9.0164e-06 0)
(9.37363 -0.0429336 0)
(9.21596 0.03106 -3.08503e-20)
(8.84227 0.020248 -1.04689e-21)
(10.1348 0.00273584 2.97082e-21)
(10.1371 0.00329317 7.59891e-21)
(10.1432 0.00334087 0)
(10.1492 0.00450072 -3.12488e-22)
(10.1506 0.0035148 -1.94555e-22)
(10.2875 -0.00495666 0)
(9.99272 0.0122724 0)
(10.1483 0.00594661 0)
(10.2206 0.000547878 3.07467e-22)
(10.1372 0.00394622 6.20939e-22)
(10.1343 0.00322137 -1.16119e-20)
(10.1318 0.00249021 1.32218e-20)
(10.1366 0.00384257 8.36294e-21)
(10.1383 0.00452539 5.32692e-21)
(10.1347 0.00274228 6.20772e-21)
(10.1342 0.00122734 2.42339e-21)
(10.1347 -0.00333355 3.94376e-22)
(10.1305 -0.00263739 3.49401e-22)
(10.1263 -0.00154494 0)
(10.1212 -0.000625806 2.82539e-21)
(10.2091 0.00182201 1.5149e-22)
(10.3295 0.00916301 0)
(10.1451 -0.00537306 -3.16547e-22)
(10.1455 -0.0042895 -3.09816e-23)
(10.1454 -0.00403418 0)
(10.1399 -0.00421105 0)
(9.01873 -0.0380148 -1.43677e-20)
(10.1706 -0.0132111 -1.08364e-21)
(9.90985 -0.0362075 1.72522e-20)
(9.56753 0.039514 -7.20165e-21)
(9.04844 0.0114447 1.09998e-20)
(8.75677 -0.00319129 8.60889e-21)
(10.2989 0.00205994 1.3812e-22)
(10.1362 0.00331146 -1.3568e-20)
(10.1394 0.00391134 -2.34735e-21)
(10.1441 0.00368447 -7.50184e-22)
(10.1495 0.00479679 0)
(10.1514 0.00387466 6.21517e-22)
(10.1472 0.00611458 -1.98182e-21)
(10.0767 0.00439816 3.37558e-21)
(10.3092 -0.00162216 0)
(10.2078 0.000913006 2.33009e-22)
(10.1404 0.0052181 6.87995e-21)
(10.1373 0.00405966 -4.32121e-21)
(10.1387 0.00472966 -8.17931e-21)
(10.1409 0.00582852 5.0642e-22)
(10.1372 0.00155843 0)
(10.1375 0.00379761 -4.92187e-21)
(10.1355 -0.00386696 -7.71776e-22)
(10.1307 -0.00281828 0)
(10.1268 -0.0017162 1.06621e-21)
(10.1225 -0.000761041 -2.8251e-21)
(10.2107 -0.00126751 -2.22851e-23)
(10.3261 -0.00306372 0)
(10.1429 -0.00663638 0)
(10.1466 -0.00444247 -2.96919e-22)
(10.1457 -0.00421195 1.48575e-22)
(10.1404 -0.00470145 0)
(9.13901 -0.034633 -8.22485e-21)
(9.85906 -0.0391214 5.35283e-22)
(9.08638 0.00958521 0)
(9.64728 0.018621 -3.78395e-21)
(8.7604 0.0225336 0)
(10.2683 -0.00130296 -1.28965e-22)
(10.1399 0.0043803 1.08153e-20)
(10.1395 0.00391635 2.34717e-21)
(10.145 0.00418096 7.13272e-22)
(10.1502 0.00562319 2.30294e-21)
(10.1514 0.00440729 1.08092e-21)
(10.1468 0.00696521 1.21305e-21)
(10.2021 0.003083 -3.54032e-23)
(10.1214 0.00211402 -3.72057e-24)
(10.3213 -0.00265508 -2.32854e-22)
(10.1441 0.00619562 1.93027e-21)
(10.1402 0.00452006 0)
(10.1416 0.0062693 -3.14423e-22)
(10.1449 0.00726001 -1.66553e-21)
(10.1426 0.00640095 -2.0823e-22)
(10.141 0.0053858 0)
(10.1408 0.00177665 0)
(10.1365 -0.00457604 2.96459e-22)
(10.132 -0.00341924 1.15463e-22)
(10.1281 -0.00209006 -2.30155e-21)
(10.1232 -0.000650203 -4.76719e-22)
(10.2068 -0.00458711 -1.77048e-23)
(10.3265 -0.00414167 0)
(10.1409 -0.00768085 6.04697e-22)
(10.1483 -0.00456004 -1.45724e-22)
(10.1457 -0.00489642 -5.88614e-22)
(10.1414 -0.00561862 -3.61423e-22)
(9.77437 -0.0296443 -5.58715e-22)
(8.88279 -0.0128435 0)
(9.70552 0.0164665 4.88118e-24)
(9.09611 0.00600667 4.68618e-22)
(8.7618 0.0207103 1.06589e-22)
(10.286 0.0032473 1.74719e-22)
(10.1456 0.00443708 -2.48379e-23)
(10.1462 0.00485649 2.48297e-23)
(10.1519 0.00621649 -1.19622e-21)
(10.1479 0.00758423 -1.94512e-21)
(10.1549 0.00410088 -8.60341e-22)
(10.1906 0.00623479 1.03624e-21)
(10.1074 0.00497645 -2.3021e-22)
(10.3172 0.000769714 1.33239e-22)
(10.1469 0.00535814 -9.28636e-22)
(10.1477 0.00636404 4.87177e-22)
(10.146 0.00829223 -4.89778e-22)
(10.1487 0.00754919 -6.71495e-22)
(10.1477 0.00932264 4.85863e-22)
(10.1461 0.00770346 2.43813e-22)
(10.1421 0.00501489 1.84596e-21)
(10.145 0.000839161 0)
(10.1378 -0.00529812 -6.32197e-22)
(10.1332 -0.0038865 3.06568e-22)
(10.1295 -0.00251413 1.97441e-21)
(10.1248 -0.000894284 3.73238e-22)
(10.1929 -0.00629319 -3.40529e-22)
(10.3171 -0.00338827 -5.82809e-22)
(10.1398 -0.00787033 3.70761e-22)
(10.1495 -0.0053462 1.69096e-23)
(10.1463 -0.00650678 8.61574e-22)
(10.1428 -0.00687177 0)
(9.76129 -0.0191657 -1.30509e-21)
(8.86912 -0.00638625 6.30861e-22)
(9.07552 -0.00156972 0)
(9.68096 0.0117782 5.74612e-23)
(8.75444 0.0197079 -7.33498e-22)
(10.313 0.0116547 1.86739e-22)
(10.1528 0.00532417 0)
(10.1531 0.00566664 -9.0927e-22)
(10.1566 0.00420147 -2.99819e-21)
(10.1737 0.013045 2.18411e-21)
(10.1067 0.00387663 2.74647e-24)
(10.3164 0.00248597 -4.78331e-22)
(10.1533 0.00704366 1.0858e-21)
(10.1536 0.00847649 2.02527e-21)
(10.1501 0.00887979 2.00863e-21)
(10.1543 0.0101992 -1.38575e-21)
(10.152 0.0101482 -1.02223e-21)
(10.1498 0.0104217 0)
(10.1473 0.00743658 -2.07474e-21)
(10.146 0.00574251 -2.12102e-21)
(10.1494 0.000839989 0)
(10.1392 -0.00592415 -2.90259e-21)
(10.1346 -0.00423406 7.60154e-21)
(10.1312 -0.00288167 3.3772e-21)
(10.1263 -0.000970142 -6.36957e-22)
(10.1769 -0.00777485 -2.24943e-22)
(10.3019 -0.00406046 1.64593e-22)
(10.1509 -0.00737645 -8.09946e-22)
(10.1405 -0.00801539 1.0613e-21)
(10.1407 -0.00631322 0)
(10.1483 -0.00889125 0)
(10.1446 -0.00788958 0)
(9.8231 -0.0166469 2.84765e-22)
(8.8794 -0.00898347 4.80448e-22)
(9.68286 0.00519112 5.41062e-23)
(9.07975 -0.00895752 6.502e-23)
(8.76071 0.0212349 -6.44788e-23)
(10.3285 0.0174041 -4.80865e-22)
(10.1584 0.00307828 0)
(10.1566 0.00473234 4.72712e-22)
(10.1652 0.0165019 7.37498e-22)
(10.1063 0.00380937 -1.11361e-21)
(10.3181 0.00804865 5.7203e-22)
(10.1571 0.00685007 -3.28569e-22)
(10.1584 0.00753085 -2.71805e-22)
(10.1553 0.0119703 -3.84293e-22)
(10.1598 0.0100947 0)
(10.1567 0.0139866 0)
(10.1542 0.0113783 -3.15959e-22)
(10.1523 0.011361 2.68139e-21)
(10.1505 0.00816127 -1.10969e-20)
(10.1503 0.00585803 0)
(10.1538 0.000957994 0)
(10.1372 -0.00503469 4.09659e-21)
(10.1344 -0.00405514 -5.55666e-21)
(10.1283 -0.00111047 2.36788e-21)
(10.1395 -0.00567185 4.10071e-21)
(10.1526 -0.0104443 1.88012e-21)
(10.279 -0.00504692 -3.34684e-21)
(10.1513 -0.00930096 -4.1531e-23)
(10.1429 -0.0068997 0)
(10.1464 -0.00854548 0)
(10.1508 -0.0100442 -5.70576e-22)
(8.88506 -0.00588827 2.92993e-22)
(9.86047 -0.0142516 5.09554e-22)
(9.08964 -0.0249299 8.01072e-22)
(9.6873 -0.00846945 -7.69283e-22)
(8.76627 0.0185065 0)
(10.3381 0.0272474 1.06648e-21)
(10.0158 -0.0174767 1.28644e-19)
(10.1675 0.0158551 0)
(10.1636 0.00996011 -2.24269e-22)
(10.1129 0.00559822 -1.49659e-20)
(10.3296 0.00657687 -4.2385e-21)
(10.1529 0.0129989 1.4429e-21)
(10.1558 0.0114507 -4.37804e-22)
(10.1611 0.0120488 2.80629e-21)
(10.154 0.0166682 4.33019e-22)
(10.1632 0.0145051 -8.33917e-23)
(10.1585 0.015828 -1.09644e-22)
(10.1568 0.0125626 0)
(10.1552 0.012274 -6.00837e-21)
(10.1544 0.00894495 2.24474e-20)
(10.1549 0.00632913 0)
(10.1556 0.00431091 6.96417e-21)
(10.1572 -0.000650362 0)
(10.129 -0.000615605 0)
(10.1351 -0.00352119 2.40313e-21)
(10.132 -0.00246944 -3.65229e-21)
(10.1405 -0.00555839 2.06959e-22)
(10.1444 -0.00711111 1.59697e-21)
(10.1386 -0.0145248 0)
(10.2596 -0.00888336 1.4642e-21)
(10.1558 -0.0112632 1.24363e-21)
(10.148 -0.00901783 6.00406e-22)
(10.1532 -0.010402 0)
(9.88877 -0.00620372 1.22837e-21)
(8.86756 -0.000142497 -6.85173e-22)
(9.10584 -0.0298225 4.09398e-20)
(9.74107 -0.0150058 -2.81314e-20)
(8.78121 0.0160076 3.21149e-20)
(10.3336 0.0299733 -9.98974e-22)
(10.0116 -0.00270927 -2.13052e-19)
(10.0142 -0.0198764 5.56071e-20)
(10.0108 -0.0138444 -6.25202e-20)
(10.022 -0.0211836 -8.28333e-20)
(10.0172 -0.00651314 1.88898e-19)
(10.028 -0.0266716 7.34181e-20)
(9.97294 0.0171369 2.76904e-20)
(10.3405 -0.0152699 1.93971e-20)
(10.2798 -0.0294909 -1.82396e-20)
(10.1918 -0.00013045 -1.46929e-21)
(10.2033 0.00179157 -6.07173e-21)
(10.158 0.0114164 -2.7664e-22)
(10.1574 0.0177933 0)
(10.1617 0.020917 -1.63647e-21)
(10.1652 0.0160292 0)
(10.161 0.017658 0)
(10.1612 0.00788411 4.34399e-20)
(10.1599 0.013781 1.09171e-21)
(10.1588 0.0130598 1.87428e-20)
(10.1589 0.00966043 -1.89002e-20)
(10.1589 0.00369004 -6.73804e-21)
(10.1583 -0.00141301 0)
(10.1604 0.000788182 0)
(10.1565 -0.00255344 1.25612e-20)
(10.1319 -0.00168234 -5.3595e-22)
(10.1355 -0.00321042 -7.51901e-21)
(10.1426 -0.00595216 -4.80947e-21)
(10.1462 -0.00745567 -5.17298e-21)
(10.1497 -0.0093601 -7.5206e-22)
(10.1389 -0.019808 0)
(10.2597 -0.0109692 -2.96907e-21)
(10.1589 -0.0122308 -1.1194e-21)
(10.1552 -0.0102534 -1.64243e-23)
(9.89172 0.000591569 7.666e-21)
(8.76558 0.00648402 5.65134e-22)
(8.97733 0.0202262 2.60588e-20)
(10.3267 0.0113259 9.00184e-22)
(10.0008 -0.00197602 -5.6188e-20)
(10.0042 -0.0016224 5.62406e-20)
(10.007 -0.00903318 0)
(10.0193 -0.0246189 -2.27613e-20)
(10.0112 -0.024626 8.56222e-20)
(10.0069 -0.0176189 7.23061e-20)
(10.1498 -0.00528983 0)
(10.1551 -0.0109822 7.01579e-21)
(10.1567 -0.0250661 5.61739e-21)
(10.0258 -0.00782155 -2.87977e-21)
(10.0314 -0.0193445 -1.91044e-20)
(10.0242 -0.0120515 4.80687e-20)
(10.0341 -0.0269459 -6.54034e-21)
(10.0258 -0.0304481 2.77718e-20)
(9.5177 0.0553124 -6.07977e-20)
(10.3523 -0.0333545 -4.64243e-21)
(10.3281 0.00756964 2.73339e-20)
(10.273 -0.00107501 -1.0002e-20)
(10.1691 0.0134008 -1.60457e-22)
(10.1652 0.00724876 1.73137e-21)
(10.1565 0.0225216 -1.28462e-20)
(10.1693 0.0209628 0)
(10.1676 0.0183151 0)
(10.1641 0.0197423 -1.07832e-21)
(10.1639 0.010203 0)
(10.1635 0.0149994 0)
(10.1629 0.0135799 -6.40145e-21)
(10.1657 0.002025 0)
(10.1646 0.00461005 -3.14941e-20)
(10.1608 -0.00498958 -7.58855e-20)
(10.1647 -0.0015838 5.13262e-20)
(10.1657 -0.0165323 0)
(10.1735 -0.0339565 1.5857e-20)
(10.1346 -0.00158131 7.96926e-21)
(10.1383 -0.00393372 -4.09999e-22)
(10.1454 -0.00665151 -2.00076e-20)
(10.148 -0.00789024 1.1296e-20)
(10.1514 -0.00974595 2.12675e-22)
(10.1569 -0.0104502 -1.62732e-22)
(10.1441 -0.0206607 8.39723e-22)
(10.2491 -0.0144713 1.05093e-21)
(10.161 -0.0117258 -4.7103e-22)
(9.9329 -0.0197246 -1.19497e-20)
(8.57835 0.00817603 1.83974e-20)
(10.0004 -0.00286383 -1.16443e-19)
(10.003 -0.00950271 4.95537e-20)
(10.0163 -0.0308118 -2.81092e-20)
(10.0092 -0.0286102 1.95096e-21)
(10.0052 -0.0203308 -1.3803e-19)
(10.1443 -0.0173775 -1.26297e-20)
(10.1378 -0.00784256 1.07165e-20)
(10.1448 -0.0341534 0)
(10.184 -0.0562425 -3.00872e-20)
(10.1624 -0.0451723 -1.65347e-20)
(10.0401 -0.016403 1.68833e-22)
(10.0392 -0.0109793 -2.7075e-20)
(10.0414 -0.0308637 -1.92629e-22)
(10.0335 -0.0353868 -6.32055e-21)
(10.0237 -0.0376754 -2.92132e-20)
(8.65194 0.0442612 -4.5093e-20)
(9.83377 0.103513 1.30198e-20)
(10.3641 0.0415983 -1.3126e-20)
(10.3117 0.0226647 1.22437e-21)
(10.1779 0.0168079 4.54399e-21)
(10.1679 0.0100134 2.79781e-21)
(10.1714 0.0090736 9.22558e-21)
(10.1591 0.0225869 -2.47662e-21)
(10.17 0.0231611 2.72834e-21)
(10.1702 0.0206228 0)
(10.1676 0.0223352 -8.91391e-21)
(10.1674 0.0134657 -1.03058e-20)
(10.1678 0.0161202 0)
(10.1736 0.00194186 -2.22751e-20)
(10.1722 0.00572693 -1.11186e-20)
(10.1733 -0.00330019 4.90735e-20)
(10.1709 -0.00946155 -1.83066e-20)
(10.1811 -0.0231533 -1.12558e-20)
(10.1951 -0.0411645 4.73376e-20)
(10.1379 -0.0020334 -4.81146e-21)
(10.1416 -0.00475106 8.92777e-21)
(10.1632 -0.0128341 2.22007e-21)
(10.1506 -0.00864107 6.59938e-21)
(10.1495 -0.00850853 0)
(10.153 -0.0103069 1.78084e-21)
(10.1584 -0.0107138 9.91081e-23)
(10.1539 -0.0103362 0)
(10.1536 -0.0178321 -1.82345e-21)
(10.1495 -0.0180281 -1.54306e-21)
(10.2878 -0.00594062 1.34378e-21)
(10.0371 -0.0552415 3.25325e-20)
(10.0008 0.0022668 -1.47028e-20)
(10.0003 -0.00385942 0)
(10.0021 -0.0120284 3.14985e-20)
(10.0142 -0.0363929 -7.01717e-21)
(10.0068 -0.033161 0)
(10.0036 -0.0233635 1.04927e-20)
(10.2207 -0.0691128 -5.37906e-20)
(10.1206 -0.0105301 -9.96553e-23)
(10.1008 -0.0129383 0)
(10.1302 -0.0240942 -4.81934e-21)
(10.1345 -0.0432713 -1.23087e-21)
(10.0575 -0.0100883 0)
(10.0784 -0.00945841 0)
(10.1675 -0.0701432 1.45747e-20)
(10.148 -0.0552152 -1.32938e-22)
(10.051 -0.026078 1.04523e-19)
(10.0432 -0.0389011 4.9939e-20)
(10.0332 -0.0448672 1.27558e-20)
(10.0211 -0.0446461 0)
(8.4573 -0.00199275 3.55734e-20)
(9.41743 0.108927 0)
(10.2835 0.0579744 9.75164e-22)
(10.3183 0.0251731 -1.23556e-21)
(10.1959 0.0180918 6.12472e-21)
(10.1722 0.0124945 1.18973e-20)
(10.177 0.0102287 0)
(10.1604 0.0240922 3.77084e-21)
(10.1718 0.0254203 -7.99525e-22)
(10.1732 0.0234646 -3.46063e-21)
(10.1721 0.0251101 -1.67873e-21)
(10.1729 0.0168209 2.00815e-22)
(10.1839 0.0015309 -1.28841e-20)
(10.1807 0.00643184 1.44518e-20)
(10.1855 -0.00516156 1.34002e-20)
(10.1849 -0.013461 -1.21533e-20)
(10.201 -0.0269638 -4.73967e-20)
(10.228 -0.0455925 3.37421e-24)
(10.1416 -0.00257231 -2.67577e-21)
(10.151 -0.00717112 -2.94902e-20)
(10.1464 -0.00598588 1.85123e-20)
(10.1726 -0.01831 -2.09442e-21)
(10.1648 -0.0129138 -6.35214e-22)
(10.1547 -0.0110891 -1.68958e-21)
(10.1566 -0.0118308 0)
(10.1598 -0.0112434 1.30109e-21)
(10.1569 -0.0120217 8.50132e-21)
(10.1589 -0.0128552 0)
(9.66487 -0.0878236 -8.18818e-20)
(9.38429 -0.0906151 1.46996e-20)
(10.1402 -0.00817927 0)
(10.3265 0.00275247 5.28098e-21)
(10.0004 0.00279585 1.4391e-19)
(10.0022 0.00844813 -1.36996e-19)
(10.0046 0.00103963 0)
(10.0003 -0.00456833 -1.9599e-20)
(10.0014 -0.0137743 7.19467e-20)
(10.0115 -0.0425302 5.9379e-21)
(10.0038 -0.0352117 0)
(10.0013 -0.0245276 -1.65675e-19)
(10.2051 -0.0913285 5.37648e-20)
(10.2663 -0.0674223 2.26326e-20)
(10.1189 -0.0326689 -3.55704e-21)
(10.1015 -0.0267222 0)
(10.1186 -0.0514743 4.91889e-21)
(10.0819 -0.0232857 0)
(10.065 -0.0273022 -8.73565e-20)
(10.1471 -0.0803708 1.53388e-20)
(10.1315 -0.0602306 3.82594e-21)
(10.0554 -0.04023 -2.01096e-20)
(10.0446 -0.0518589 -1.17362e-20)
(10.0301 -0.0533108 4.04724e-20)
(10.0165 -0.0520281 -3.83685e-20)
(8.16079 -0.0232043 5.04037e-21)
(9.11399 0.0768956 3.35615e-21)
(9.05081 -0.0678 6.74293e-21)
(10.2356 0.0382483 -2.24857e-21)
(10.3408 0.0272779 2.03967e-21)
(10.2081 0.0225443 -2.33579e-21)
(10.1787 0.0164817 0)
(10.1848 0.0145578 -1.9285e-20)
(10.1621 0.0273226 -4.46467e-21)
(10.1735 0.028244 7.46878e-21)
(10.1779 0.026633 1.48216e-21)
(10.1772 0.0273263 1.09633e-20)
(10.1908 0.0106 1.92786e-20)
(10.1963 0.00463767 0)
(10.2005 -0.00371367 0)
(10.2024 -0.0143344 0)
(10.2291 -0.0241542 0)
(10.2668 -0.0398493 -4.67392e-20)
(10.3058 -0.0634227 -7.3153e-20)
(10.1458 -0.00304214 2.67564e-21)
(10.1519 -0.00551634 8.25081e-21)
(10.1666 -0.0137623 2.29639e-21)
(10.1658 -0.0139437 1.74838e-22)
(10.1612 -0.0122733 -1.56277e-21)
(10.1627 -0.0135227 -1.82186e-21)
(10.165 -0.0149071 0)
(10.1587 -0.0117134 0)
(10.1617 -0.0137998 0)
(10.1705 -0.00448143 0)
(10.3663 -0.013762 4.00079e-20)
(10.2982 -0.0295303 -3.04264e-20)
(10.0006 0.00484464 3.59085e-20)
(10.0023 0.0108677 -2.80448e-20)
(10.0049 0.0140297 -6.97894e-20)
(10.0137 0.00793715 0)
(10.0073 0.0109487 0)
(9.99992 -0.00489726 5.48438e-21)
(10.0009 -0.0153976 4.3089e-20)
(10.0078 -0.0459583 -1.2722e-21)
(10.0001 -0.0396319 -2.9675e-20)
(9.9994 -0.0301304 2.68451e-19)
(10.1824 -0.107193 1.46089e-22)
(10.2518 -0.0954584 4.5597e-20)
(10.3319 -0.104507 -7.1851e-20)
(10.0714 -0.0447499 -6.55443e-20)
(10.1023 -0.0508467 2.0805e-20)
(10.0892 -0.0406312 3.00045e-20)
(10.125 -0.0862473 0)
(10.1146 -0.0631409 -1.98944e-21)
(10.0586 -0.0588282 -1.62032e-20)
(10.0414 -0.0623457 -4.45307e-20)
(10.0231 -0.0623725 2.25448e-20)
(10.0111 -0.0568716 -1.4244e-20)
(10.3285 -0.0677987 0)
(8.03797 -0.0145029 -4.72716e-21)
(8.96723 0.0593589 2.24436e-21)
(8.8564 -0.0373041 -5.12855e-21)
(10.2084 0.0304264 7.02338e-22)
(10.3521 0.0290939 -6.63504e-22)
(10.2155 0.0307916 0)
(10.1841 0.0284718 0)
(10.1922 0.0277731 1.98069e-20)
(10.1773 0.0321413 0)
(10.1638 0.0352916 -7.26464e-23)
(10.1836 0.0299152 -1.43896e-21)
(10.201 0.0245141 -1.97954e-20)
(10.2101 0.0182389 0)
(10.2187 0.00815498 0)
(10.2256 -0.0059348 0)
(10.2611 -0.0151323 0)
(10.2944 -0.0339407 3.65553e-20)
(10.3373 -0.0485511 2.13679e-19)
(10.3657 -0.0676036 1.71996e-20)
(10.1492 -0.0021242 0)
(10.1557 -0.00581064 -8.35233e-21)
(10.1675 -0.013182 0)
(10.1667 -0.014683 5.86844e-21)
(10.1676 -0.0170142 -1.53554e-20)
(10.1681 -0.0192315 4.69825e-21)
(10.1679 -0.0166748 -1.60894e-20)
(10.1627 -0.0123166 2.59827e-21)
(10.1643 -0.0135489 0)
(10.167 -0.0177188 2.37543e-20)
(10.1792 -0.0113398 0)
(10.2687 0.017656 1.6633e-20)
(10.0006 0.00602933 -6.63619e-20)
(10.024 0.00792238 2.01939e-20)
(10.0034 0.0164473 0)
(10.0063 0.0204351 -1.20004e-21)
(10.0114 0.0147329 5.68427e-20)
(9.99982 -0.00454559 0)
(9.99905 -0.0147277 -4.79591e-20)
(10.0024 -0.0501856 3.29924e-20)
(9.99526 -0.0388609 0)
(9.99592 -0.0297375 0)
(9.99821 -0.0211513 -1.81977e-21)
(10.1556 -0.117108 -2.41378e-21)
(10.3757 -0.143301 1.00527e-19)
(10.2208 -0.121577 -2.29451e-21)
(10.2941 -0.132211 -7.36769e-20)
(10.105 -0.0877127 5.44207e-20)
(10.0758 -0.0604851 0)
(10.0949 -0.0660478 -2.46086e-20)
(10.0558 -0.0714851 0)
(10.0311 -0.0740571 4.99556e-21)
(10.0152 -0.0694484 4.30484e-20)
(10.0038 -0.0620502 -1.71759e-20)
(10.2778 -0.0441626 0)
(7.97167 -0.0143195 2.80045e-21)
(8.87343 0.0583209 -3.64152e-21)
(8.77239 -0.0338357 -7.45226e-22)
(10.1706 0.0247886 9.10052e-22)
(10.3546 0.0321502 1.32647e-21)
(10.2175 0.0455107 5.98906e-22)
(10.2025 0.0342572 2.15711e-20)
(10.1921 0.0326815 -1.04725e-20)
(10.1839 0.0375355 1.24995e-21)
(10.1676 0.0486898 -1.34436e-21)
(10.2142 0.0323659 -2.85275e-20)
(10.2268 0.0271693 1.69493e-20)
(10.2517 0.00459793 0)
(10.2397 0.0185414 0)
(10.2847 -0.00719474 -1.30669e-20)
(10.3523 -0.00680905 7.77371e-20)
(10.3228 -0.0104932 0)
(10.3868 -0.0273277 -2.1656e-19)
(10.4095 -0.0981871 -1.38922e-19)
(10.1534 -0.00199069 4.58441e-21)
(10.1592 -0.00539345 -2.48235e-21)
(10.1663 -0.0119333 1.7911e-20)
(10.1676 -0.019028 4.0699e-21)
(10.1709 -0.0178558 1.33338e-20)
(10.1709 -0.0223895 -1.93888e-21)
(10.1721 -0.0177083 3.79855e-22)
(10.1683 -0.0143506 -2.20045e-21)
(10.1694 -0.0195291 8.64146e-21)
(10.1625 -0.0250435 0)
(10.243 -0.0113602 -2.51272e-22)
(10.0002 0.00576099 -4.06275e-20)
(10.0016 0.0153464 8.28434e-20)
(10.0388 0.00743846 -2.92947e-20)
(10.0282 0.0195757 -5.33397e-20)
(10.0054 0.0232416 3.26865e-20)
(10.0107 0.0237564 -2.45216e-20)
(10.0205 0.021642 5.21233e-20)
(9.99812 -0.0115152 0)
(9.99964 -0.00369914 0)
(9.99562 -0.049586 -1.6787e-20)
(9.99021 -0.0373684 -5.57623e-20)
(9.99263 -0.0285449 1.70854e-20)
(9.99557 -0.0198356 1.86164e-21)
(10.1294 -0.120858 -1.73395e-20)
(10.4297 -0.194637 -1.73244e-19)
(10.1871 -0.141312 -4.57767e-21)
(10.3358 -0.183464 2.64198e-20)
(10.2546 -0.170499 3.0005e-20)
(10.0896 -0.0917744 -4.40422e-20)
(10.0717 -0.0773549 -1.30877e-20)
(10.106 -0.120145 2.43679e-20)
(10.0438 -0.0869664 -7.26021e-20)
(10.0215 -0.0847367 0)
(10.0054 -0.076238 -1.34157e-20)
(9.99427 -0.0625232 -3.5916e-21)
(10.3034 -0.0456933 5.30912e-22)
(7.93226 -0.0224709 0)
(8.78227 0.0615694 1.09915e-21)
(8.69503 -0.0299734 0)
(10.1348 0.0194121 -1.38049e-21)
(10.3541 0.0365231 -6.0788e-22)
(10.2088 0.0612126 1.07687e-22)
(10.2077 0.0498843 0)
(10.1941 0.043922 8.86638e-22)
(10.1761 0.0610175 1.56033e-20)
(10.2255 0.0439572 0)
(10.2399 0.0380271 3.35831e-20)
(10.2713 0.0133127 -4.37185e-21)
(10.256 0.0289783 -3.86599e-20)
(10.3098 0.0023187 -2.53045e-21)
(10.3587 0.0308316 9.61976e-20)
(10.3963 0.00754252 -4.42888e-20)
(10.4345 -0.0478863 1.61706e-19)
(10.4674 -0.138505 3.97932e-20)
(10.157 -0.00187153 0)
(10.1639 -0.00511588 0)
(10.1708 -0.0110222 -2.43204e-20)
(10.1725 -0.0147176 6.48496e-22)
(10.1684 -0.023122 -9.37969e-21)
(10.1722 -0.0205538 0)
(10.1739 -0.0264456 -2.40619e-21)
(10.1747 -0.0191558 -3.81679e-21)
(10.1736 -0.0203868 3.5201e-21)
(10.169 -0.0270896 4.29989e-21)
(10.2608 -0.01366 1.01803e-22)
(10.0001 0.00434247 3.33697e-20)
(10.0004 0.0131241 8.37257e-20)
(10.0018 0.0206625 -1.22435e-19)
(10.0037 0.0245464 -4.43993e-20)
(10.057 0.00733669 0)
(10.0413 0.0194805 3.41602e-20)
(10.0335 0.0301871 -4.1199e-20)
(10.0089 0.0290997 -1.43158e-20)
(10.0168 0.0302424 0)
(10.0272 0.0310995 -8.76625e-20)
(10.0774 0.00695242 -4.24744e-21)
(9.99704 -0.00801737 5.01685e-20)
(9.99954 -0.00228628 0)
(9.99985 0.00370285 0)
(9.98793 -0.0473222 -2.07494e-20)
(9.98541 -0.0315887 4.39623e-20)
(9.99237 -0.0154217 -5.40671e-20)
(9.98822 -0.0235142 0)
(10.1493 -0.155348 -2.80579e-22)
(10.3836 -0.243808 1.4985e-20)
(10.2114 -0.194256 5.89891e-21)
(10.2897 -0.220187 3.1046e-22)
(10.0817 -0.115745 3.31772e-20)
(10.0606 -0.0989316 5.99581e-20)
(10.1122 -0.160305 0)
(9.98325 -0.0602439 4.40721e-20)
(10.0332 -0.103702 -7.78783e-22)
(10.0094 -0.095243 0)
(9.99234 -0.0781892 -1.65815e-20)
(10.2869 -0.0421604 -9.8804e-23)
(7.90013 -0.0266531 4.38201e-22)
(8.69856 0.0680693 -6.75447e-22)
(8.64883 -0.0269139 -1.28223e-21)
(10.2081 0.0708773 0)
(10.1219 0.00704132 1.06606e-22)
(10.3478 0.0396371 -1.68362e-22)
(10.2062 0.0673003 -2.3202e-20)
(10.1901 0.0704537 3.65364e-21)
(10.2487 0.0628196 -7.63043e-21)
(10.2332 0.0613085 2.83333e-20)
(10.2906 0.0373736 -5.48129e-20)
(10.3239 0.0460126 -1.00508e-19)
(10.2711 0.0408153 7.15747e-20)
(10.3827 0.0484028 0)
(10.4462 0.00868549 9.69395e-20)
(10.496 -0.0760181 0)
(10.1591 -0.00160701 4.32285e-21)
(10.1714 -0.00411539 4.46568e-20)
(10.1755 -0.00927162 0)
(10.1774 -0.0143944 -3.77037e-22)
(10.1783 -0.0210448 -1.05042e-20)
(10.1698 -0.0293994 0)
(10.1746 -0.0226147 0)
(10.1776 -0.029574 -3.52735e-22)
(10.1794 -0.0213332 1.01793e-20)
(10.1701 -0.034229 1.09121e-21)
(10.2637 -0.0191965 -1.0241e-21)
(10.1563 0.00049833 -5.25973e-21)
(10.1517 0.00160333 0)
(9.99937 0.0130886 1.34766e-20)
(9.99925 0.0213935 0)
(10.0029 0.0287727 4.6638e-20)
(10.0068 0.0324834 1.43564e-20)
(10.0576 0.0203722 0)
(10.0442 0.0315116 5.73232e-20)
(10.0346 0.0369021 3.78302e-21)
(10.0144 0.0367301 0)
(10.0243 0.0380317 0)
(10.0758 0.0219139 -4.51836e-22)
(10.0983 0.00594285 -4.08879e-21)
(10.1178 0.00349103 0)
(10.1334 0.000152891 4.65794e-20)
(10.1468 0.00504494 -4.61346e-20)
(9.99927 0.000643388 0)
(9.99572 -0.00261311 0)
(9.99966 0.00199749 0)
(9.99823 0.0115388 0)
(9.9716 -0.0514671 -2.15862e-20)
(9.98002 -0.0395285 5.48689e-20)
(9.98184 -0.0249551 0)
(9.98895 -0.00927059 5.3513e-20)
(10.1641 -0.213938 2.06758e-20)
(10.3307 -0.287306 2.31948e-20)
(10.2387 -0.251949 -2.11965e-20)
(10.0514 -0.123415 2.83501e-21)
(10.0774 -0.139385 -6.30545e-22)
(10.0969 -0.191833 1.04672e-20)
(10.1189 -0.229941 -3.66877e-20)
(9.96074 -0.0655833 0)
(9.97673 -0.076036 -2.64699e-21)
(10.0186 -0.118605 0)
(9.99122 -0.099841 0)
(10.3061 -0.0435589 0)
(8.60748 0.0737808 -1.72294e-22)
(7.85604 -0.0309199 -2.27675e-22)
(8.71538 -0.0394508 -1.01765e-20)
(10.3331 0.0514107 0)
(10.1662 -0.00309653 -4.15745e-21)
(10.2187 0.0956942 -3.99106e-21)
(10.2414 0.0727526 -1.39898e-20)
(10.3203 0.0856101 0)
(10.2789 0.0801994 0)
(10.3615 0.0806255 -3.89789e-20)
(10.4432 0.064309 4.56727e-21)
(10.5129 -0.00724847 2.47407e-20)
(10.1693 0.000869946 -5.33684e-20)
(10.1803 -0.00708416 0)
(10.183 -0.0128371 1.44471e-20)
(10.1842 -0.0208487 3.78062e-22)
(10.1848 -0.0230851 1.82857e-21)
(10.1726 -0.0367519 -1.15392e-21)
(10.1786 -0.0255389 1.52586e-21)
(10.1826 -0.0324655 0)
(10.2663 -0.025134 2.93176e-22)
(10.172 -0.041636 -7.21314e-22)
(10.1568 0.0133446 2.23091e-20)
(10.1669 0.00522815 8.72917e-21)
(10.1612 0.00984535 -2.84274e-21)
(9.99798 0.0212398 1.6418e-20)
(9.99972 0.0292949 -3.19303e-20)
(10.005 0.0372197 -1.61245e-20)
(10.0118 0.0417025 1.36771e-20)
(10.0586 0.0335563 0)
(10.0451 0.0409632 2.21279e-20)
(10.0334 0.0450265 -3.57876e-21)
(10.0219 0.045667 1.12442e-21)
(10.0746 0.0364142 -1.72764e-20)
(10.0962 0.0270845 1.47448e-20)
(10.0917 0.037813 -7.62718e-21)
(10.1582 0.0227939 1.35659e-20)
(10.1155 0.0254713 -1.18033e-23)
(10.1475 0.0238612 -1.15716e-21)
(10.1332 0.0238483 4.07306e-21)
(9.99665 0.00852397 0)
(9.99262 0.00362695 0)
(9.99564 0.0196127 6.10816e-20)
(9.98541 0.00243613 -1.07263e-19)
(9.96077 -0.0417347 -5.68198e-20)
(9.97242 -0.031141 2.55083e-20)
(9.98089 -0.0125356 1.70534e-20)
(9.94677 -0.0509482 0)
(10.1844 -0.276239 0)
(10.2717 -0.324597 1.50438e-20)
(10.0367 -0.15562 -2.35327e-20)
(10.0557 -0.210087 3.15705e-20)
(10.0613 -0.168781 3.07781e-20)
(10.0653 -0.248083 -1.5836e-20)
(10.1285 -0.293539 6.14754e-21)
(9.96895 -0.0962871 -4.44823e-20)
(9.94791 -0.081367 5.29449e-20)
(9.99176 -0.129634 -3.86119e-20)
(10.3892 -0.0544016 2.73476e-21)
(8.51382 0.103512 9.00649e-21)
(7.78544 -0.0326903 -4.77329e-20)
(8.7238 -0.0980897 -5.95206e-21)
(10.3602 0.0608915 1.68161e-20)
(10.2567 0.0168132 -1.83121e-20)
(10.2521 0.108541 4.19675e-20)
(10.263 0.0819235 -2.31973e-20)
(10.3417 0.11803 1.84063e-19)
(10.4263 0.118264 3.11577e-19)
(10.5174 0.0633988 -2.35487e-19)
(10.1814 -0.00176129 0)
(10.1886 -0.00958019 -3.02981e-20)
(10.1911 -0.0191089 -1.08993e-22)
(10.1918 -0.023926 -1.18467e-20)
(10.1893 -0.0342181 1.1874e-21)
(10.1782 -0.0446743 3.86204e-22)
(10.1845 -0.0294256 5.85243e-22)
(10.2331 -0.0325633 -3.01993e-22)
(10.1693 -0.0499277 0)
(10.1672 0.014599 0)
(10.1816 0.00471269 0)
(9.99304 0.0283353 1.01952e-19)
(9.99684 0.0297953 -1.68157e-20)
(10.001 0.0385779 4.98572e-20)
(10.0089 0.0477077 0)
(10.0193 0.0526443 -4.3551e-20)
(10.059 0.0454557 -6.47586e-21)
(10.0451 0.0510341 -1.4564e-21)
(10.0316 0.054691 1.48459e-20)
(10.0744 0.0484699 1.10178e-20)
(10.0909 0.0553906 1.72247e-20)
(10.1066 0.0473745 -6.09604e-21)
(10.1684 0.0239689 5.95093e-21)
(10.1638 0.0307929 1.44373e-20)
(10.1218 0.0443107 1.17144e-21)
(10.1538 0.0350649 -2.50922e-21)
(10.1395 0.0399784 -1.30682e-20)
(9.99258 0.0164953 5.81401e-20)
(9.98735 0.0117325 7.49412e-20)
(9.98909 0.0248712 -2.21173e-19)
(9.97703 0.000854778 -1.78267e-20)
(9.93091 -0.0667606 1.64559e-20)
(9.95032 -0.0236317 -2.7748e-19)
(9.96442 -0.012286 8.90445e-20)
(9.9341 -0.0260402 0)
(9.98672 0.0317078 4.49135e-20)
(10.2074 -0.353109 -3.24628e-21)
(9.99985 -0.171008 0)
(10.0114 -0.202575 6.75135e-20)
(10.0204 -0.249372 -3.91898e-20)
(10.0698 -0.30368 0)
(10.1383 -0.371492 -4.24193e-21)
(9.94632 -0.162169 -9.44524e-20)
(9.95314 -0.129252 3.23187e-20)
(9.92724 -0.119697 -1.34332e-19)
(10.4166 -0.0956155 7.50815e-21)
(8.32329 0.223343 3.30576e-21)
(7.7836 -0.042169 2.99257e-19)
(8.31891 -0.228064 -1.70419e-19)
(10.3275 0.149783 -1.76313e-21)
(10.2874 0.143081 -1.60302e-19)
(10.3539 0.148161 8.14831e-20)
(10.3953 0.167497 -1.84383e-19)
(10.5062 0.136359 -7.75523e-21)
(10.1937 -0.00418922 1.59498e-20)
(10.1984 -0.0150161 -3.41158e-23)
(10.2007 -0.0227375 1.69384e-20)
(10.1986 -0.0345233 -1.12476e-21)
(10.185 -0.0540407 -7.51492e-22)
(10.1927 -0.0333156 1.85214e-21)
(10.2111 -0.0519788 1.66188e-22)
(10.1762 -0.0604688 2.00306e-20)
(10.1818 0.0133088 0)
(10.1974 0.0037417 -1.82051e-20)
(9.99125 0.0370839 -3.71854e-20)
(9.9965 0.0391305 -3.33122e-20)
(10.0037 0.0512516 0)
(10.0162 0.0614267 -2.77848e-20)
(10.0295 0.0631349 1.5866e-20)
(10.0593 0.0565633 6.22759e-21)
(10.0439 0.0635526 0)
(10.0759 0.0615503 -3.11066e-21)
(10.0945 0.0631574 -1.73603e-21)
(10.1133 0.0627311 4.43894e-21)
(10.1812 0.0243731 -1.03952e-20)
(10.1751 0.0349706 0)
(10.1314 0.0589185 -5.26238e-22)
(10.1642 0.0447278 -1.05506e-21)
(10.1492 0.0525906 -7.20257e-21)
(9.9791 0.0114768 -3.24776e-20)
(9.98208 0.0238832 0)