/*--------------------------------*- C++ -*----------------------------------*\
  =========                 |
  \\      /  F ield         | OpenFOAM: The Open Source CFD Toolbox
   \\    /   O peration     | Website:  https://openfoam.org
    \\  /    A nd           | Version:  8
     \\/     M anipulation  |
\*---------------------------------------------------------------------------*/
FoamFile
{
    version     2.0;
    format      ascii;
    class       surfaceScalarField;
    location    "0.017";
    object      phi;
}
// * * * * * * * * * * * * * * * * * * * * * * * * * * * * * * * * * * * * * //

dimensions      [0 3 -1 0 0 0 0];

internalField   nonuniform List<scalar> 
662
(
-1.92846e-05
1.51907e-05
4.09382e-06
1.94702e-05
-3.87548e-05
-8.28387e-05
3.41638e-05
6.38656e-05
-1.63211e-05
2.04149e-05
-0.000142558
7.91892e-05
9.86397e-06
-4.86187e-05
8.79988e-05
-7.01561e-05
-2.11334e-05
4.15483e-05
-0.000169746
3.70518e-05
1.69902e-06
-5.03177e-05
1.98788e-06
-0.00011493
-4.29782e-06
0.00011724
-3.24767e-05
3.44646e-05
0.000153709
-8.68439e-05
5.27229e-05
-1.11746e-05
-0.000172769
4.72247e-06
-7.71768e-07
-4.9546e-05
1.09941e-06
-0.000110324
-5.70577e-06
-3.13773e-05
5.45257e-05
-1.80283e-06
0.000183588
-4.10533e-05
-0.000170764
-2.77693e-06
-2.24035e-06
-4.73056e-05
3.48355e-06
-9.74606e-05
-1.6347e-05
-2.78938e-05
5.4232e-05
2.93721e-07
0.000186619
-4.83423e-06
-1.36784e-06
0.000116551
-0.00011675
1.56684e-06
3.2895e-05
-3.42629e-05
-0.000166209
-6.79486e-06
-3.86662e-05
-8.63939e-06
-2.07992e-05
-1.7867e-05
-1.6107e-05
-4.69229e-06
4.5663e-06
-8.31788e-05
-1.88481e-05
-2.33275e-05
-0.000140468
-0.000757646
0.000898114
5.74614e-05
-3.22939e-06
8.7391e-05
-2.99297e-05
-5.3077e-05
0.000187195
-2.82247e-07
-4.60439e-07
0.000113778
3.23418e-06
3.24346e-05
-0.000143398
-3.1451e-05
-9.05262e-05
-7.07384e-05
-4.18599e-05
-6.47733e-05
2.08442e-05
-2.55365e-05
3.23211e-06
-7.2653e-05
-1.37578e-05
-2.00953e-05
-0.000385005
0.000703753
-0.00107639
-0.000952643
0.00185076
0.000204456
-2.04904e-05
0.000283623
-0.000109096
-0.000154459
-3.39896e-06
0.000100968
1.62089e-05
2.90356e-05
-0.000109371
8.83556e-05
2.55065e-05
-5.1043e-05
-2.34077e-07
-3.59127e-07
-7.20598e-05
-2.03294e-05
0.00134889
-0.00159778
-0.000105734
0.00195649
-3.91257e-06
8.78117e-05
1.70684e-05
2.5123e-05
-0.000185158
0.000101293
-6.21832e-05
1.11402e-05
0.0016043
-0.000361148
0.00198941
-3.29165e-05
-2.71179e-06
7.56001e-05
1.49233e-05
2.24112e-05
-6.4449e-05
2.26582e-06
-0.00021422
4.02018e-05
0.00198762
1.78324e-06
0.0016977
-0.000126317
-5.50481e-06
2.97676e-05
5.13373e-05
1.69064e-05
-6.38138e-05
-6.3522e-07
-0.000218382
6.42794e-06
-9.61793e-08
-0.000105981
0.000102721
3.35627e-06
-2.9931e-05
2.98348e-05
0.00195778
2.98476e-05
0.00171838
-1.89006e-05
-0.00180448
0.00094999
0.000854495
-6.43866e-05
5.72848e-07
0.0019137
4.40766e-05
0.00187559
3.81082e-05
7.11066e-05
0.000155248
0.000794742
9.64699e-05
5.87778e-05
3.20833e-05
-0.000218832
-1.852e-07
-4.03043e-07
-0.000106693
1.1145e-06
-3.0334e-05
0.00169909
4.91434e-05
-0.000177984
-7.87012e-06
4.18682e-05
0.000143985
-0.0013577
0.000780912
0.00143128
-0.000229856
1.15973e-05
0.00165877
8.43976e-05
0.0015734
0.000123474
0.000286809
0.000408879
0.00116677
0.000309981
0.000157676
0.000112208
-8.01147e-08
-0.000105672
-9.40944e-07
-3.04142e-05
-0.000185471
-1.51848e-06
9.00579e-06
-5.48168e-05
4.69467e-05
4.00401e-07
-0.000103819
-2.25364e-06
-3.00138e-05
-0.000169656
4.80093e-06
-2.06154e-05
-5.63353e-05
1.52439e-06
-9.41008e-05
-1.12423e-05
-2.84893e-05
-0.000147059
7.40671e-06
-3.00041e-05
-5.15344e-05
7.95972e-06
-4.2586e-05
-5.94745e-05
-2.05296e-05
-0.000131719
4.32864e-06
-1.96684e-05
-4.41276e-05
3.79263e-06
-1.97611e-05
-0.000115751
-3.9799e-05
-3.60063e-05
0.000466735
-0.000387545
-0.000131074
0.00019494
0.000335661
0.000124784
-0.000891544
0.000485862
0.000405682
-0.000501141
-0.000390403
-0.000623688
0.000346767
0.000276921
-0.000137826
-0.000699583
0.000198441
-0.000113637
-0.000585946
-0.000344627
0.00023099
0.000196089
-0.000583635
-0.000595147
0.000791236
-0.00098555
3.74744e-05
-0.00062342
-0.000948076
-0.000546583
-9.41229e-05
-0.000529297
-0.000348924
-0.000443047
-0.00038512
0.000509904
-0.000741776
0.00114746
-4.94597e-05
0.000107481
0.00103998
0.000454248
0.00042306
9.2427e-05
0.000361821
0.000395937
-0.000119016
0.000488364
-0.00044331
0.000324293
-0.000581136
-0.000382695
-0.000151705
3.44646e-05
0.000200353
-0.000746936
-0.000747722
-0.00127702
-0.000742214
-5.37692e-05
-0.00122325
-0.000448753
-0.000502522
-0.000224235
0.000647295
0.000815743
0.00117756
0.000606241
0.000224207
0.000953358
0.000378294
0.00011007
0.000602501
0.00017328
0.000151013
0.00028335
3.42629e-05
0.000112886
-0.0008551
-0.00111036
-0.000857877
2.75474e-05
-0.00113791
-0.000518869
-0.000491322
-0.000159754
0.000765996
0.000793603
0.000761162
0.000411777
0.000190724
0.00120538
0.000284917
0.000475641
1.11532e-05
-0.00086903
-0.00112676
-0.000875825
-0.00118347
5.67126e-05
-0.000770741
-0.00041273
-0.00051017
-0.000453457
0.000728607
3.25543e-05
0.000728325
0.00121783
-1.24509e-05
0.00125039
0.000478875
0.000466424
-0.000308104
-0.000567721
-0.00107884
-0.00087866
-0.000200184
-0.000599172
-0.0003641
-0.00051456
0.000369909
-0.000570093
-0.000653375
0.000240645
-0.000283466
-0.000467215
-0.00022657
0.000855503
-0.000127178
0.000835013
0.00132048
-7.0091e-05
0.0011933
0.000482633
0.000412542
0.000288694
-0.000430255
0.000141561
-0.0002814
-0.0006455
-0.000126881
-0.000303373
0.000328201
-0.000398939
-0.000270971
-0.000785531
5.62299e-05
-0.000841761
-0.00058927
-0.000120121
-0.000278818
-0.000184895
-9.65391e-05
-0.000368237
8.47711e-05
-0.000226676
-0.000226929
-0.000142158
-0.000150895
-7.57809e-05
-0.000277776
-0.000125976
-0.0001518
0.00140142
-0.00155588
0.00199916
-0.000597744
0.000922768
-0.000675008
0.000812089
2.29243e-05
0.000702992
-0.000852885
-0.000776302
0.000799227
0.00125592
-6.26231e-05
0.000479618
0.000429611
0.000366988
0.000484913
-0.0013378
0.00133448
-0.000849564
0.000462494
-0.00058847
-0.000159121
-0.00043015
9.37661e-05
-0.000372584
0.000747995
-0.00117814
-0.000469123
-0.000409127
-0.000179344
-0.00036783
-0.000497184
8.80575e-05
2.152e-05
-0.000518704
-0.000234547
9.23892e-05
-0.000310328
0.000462128
-0.00037407
-2.03294e-05
-0.00224787
0.00165013
-0.000913396
0.000975122
-0.000725304
-0.000188092
0.000613974
0.00115841
-0.000359184
-0.000179387
0.000611033
-0.000131414
0.000251849
0.000381911
0.000250496
0.000564928
-4.68785e-05
-0.000518049
-0.000137681
-0.000711882
-0.000862986
-0.000298058
0.000262956
-0.000442343
-0.000448927
-0.00080272
-0.000375425
-0.000982064
-0.000960544
-0.000743255
-0.000703053
-7.87712e-05
-0.000881772
-0.000466037
-5.26667e-05
-0.000544809
-0.000241514
-0.000132556
-0.000294181
-2.98348e-05
-0.000786915
0.000598823
-0.000833794
0.0012128
0.00108648
-0.000301342
-0.000532452
0.00052052
-0.000821862
0.000452423
-0.000200574
1.00796e-05
0.000772263
-0.000251743
0.000254214
0.000280264
7.96902e-05
0.000358665
-0.000104451
6.06072e-05
0.000204299
-0.00019422
-0.000244627
-0.00018402
-0.000395568
0.000143825
-0.000115815
-0.000765958
-0.000818867
-0.000812439
-0.000412818
-0.000131991
-0.00117878
-0.000290825
-0.000422815
0.00017313
-0.000705581
0.00125961
0.00124071
-0.000470393
-0.00035147
-0.00117597
-0.0003537
-0.00070517
0.000147934
-6.82437e-05
-4.62859e-05
-0.000230306
0.000334757
-0.000190932
1.69064e-05
-4.69467e-05
-0.000864115
5.16751e-05
-0.0008643
-0.00114212
-3.66586e-05
-0.00109044
-0.000421701
-0.00045836
0.00122217
1.85382e-05
0.00127131
-0.00111149
-6.44886e-05
-0.00109295
-0.000696164
-0.000760652
0.00115539
0.000275893
0.00232217
-0.000850615
-1.36847e-05
-0.000839018
-0.000952902
-0.00013754
-0.000966586
-0.000459301
-0.00059684
0.00126315
8.16105e-06
0.00134755
-0.00123005
0.000137106
-0.00122189
-0.000781268
-0.000644162
0.00109907
-0.000812265
0.00137497
-0.000848573
9.55509e-06
-0.000736365
0.00121617
0.00013138
0.00133964
0.000527379
-0.00177282
0.00103646
-0.000707021
0.00208199
-0.00161514
0.00105418
-1.77228e-05
0.000807371
-0.000797816
-0.00115901
0.000192426
-0.000351642
-0.000599094
-0.000406668
0.000691857
-0.000560477
-0.00130275
8.08552e-05
-0.00061089
-0.000674166
-0.000593311
-0.000370188
0.000897567
0.0017118
0.00108596
-3.17799e-05
0.000288142
-0.000930293
0.000369816
-3.27262e-05
0.000695366
0.00101643
0.000677643
0.000402599
0.000275044
0.000370819
-0.000603219
0.000251578
-0.000315078
-0.00041791
-0.000166332
-0.000816205
0.000205315
-0.000446388
-0.000612979
-0.000407664
-0.000648666
0.00061594
0.000367768
-0.000454359
0.000139281
-8.35396e-05
-0.000669089
0.000222701
-5.31498e-05
-0.000285468
0.000201928
-1.04241e-05
0.000357344
-0.000208918
-6.96368e-05
-0.000427426
-0.000204725
-0.000356482
0.000151757
-0.000149641
8.0004e-05
5.22875e-05
-0.000409632
-2.05296e-05
3.60063e-05
)
;

boundaryField
{
    movingWall
    {
        type            calculated;
        value           uniform 0;
    }
    fixedWalls
    {
        type            calculated;
        value           uniform 0;
    }
    frontAndBack
    {
        type            empty;
        value           nonuniform List<scalar> 0();
    }
    defaultFaces
    {
        type            empty;
        value           nonuniform List<scalar> 0();
    }
}


// ************************************************************************* //
