/*--------------------------------*- C++ -*----------------------------------*\
  =========                 |
  \\      /  F ield         | OpenFOAM: The Open Source CFD Toolbox
   \\    /   O peration     | Website:  https://openfoam.org
    \\  /    A nd           | Version:  8
     \\/     M anipulation  |
\*---------------------------------------------------------------------------*/
FoamFile
{
    version     2.0;
    format      ascii;
    class       surfaceScalarField;
    location    "0.017";
    object      phi;
}
// * * * * * * * * * * * * * * * * * * * * * * * * * * * * * * * * * * * * * //

dimensions      [0 3 -1 0 0 0 0];

internalField   nonuniform List<scalar> 
1107
(
0.00031593
-0.000643075
0.000633266
-0.000306121
0.000616925
-0.000300995
-2.9538e-05
0.000646463
0.000304944
0.000538719
-0.000106379
-0.000737284
-0.000967823
0.000629691
-9.68922e-05
0.00070062
0.000286098
-5.35006e-05
-1.48971e-05
-3.7032e-05
0.000683496
-3.3699e-05
1.4593e-05
-8.72726e-05
0.000180127
-0.000147522
-6.63036e-05
0.000300081
-0.000857238
-0.00126567
0.000597928
-0.000205359
0.000738158
0.000759205
-9.56174e-05
4.1404e-05
0.000812031
-9.423e-05
3.63335e-06
-4.2541e-05
-1.12638e-05
0.0007249
0.000849128
2.96292e-05
-6.67257e-05
6.46614e-05
-0.000127129
-8.50551e-05
2.52238e-05
-4.7835e-05
0.000225045
-0.000138123
-0.000214051
0.000276558
-0.000117816
0.000295901
-0.000876581
-0.00150662
0.000536854
-0.000361945
0.000754514
0.000824869
-0.000182328
0.000892966
-0.000162327
5.23316e-06
-2.25504e-05
-6.03061e-06
-2.14696e-05
0.000860467
1.01309e-05
0.000754529
0.000937676
-0.000111436
0.000953609
-3.74027e-05
0.000942014
-2.38651e-05
3.54597e-05
3.49572e-05
-7.18278e-05
-4.81845e-05
1.34514e-05
-2.63293e-05
-8.05249e-05
-0.000129426
0.000318141
-0.000210748
-0.000321445
0.000394628
-0.000194303
0.000304953
-0.000786906
0.000454981
-0.00165665
-0.000561781
0.00073669
0.000873635
-0.000301449
0.000957056
-0.000245748
2.96067e-06
-1.20596e-05
-3.06994e-06
8.59948e-05
0.000908384
-5.23642e-05
0.000848908
-1.23066e-05
0.00076466
0.00101078
-0.000165156
0.00103269
-5.93142e-05
0.00102185
4.6294e-05
0.000983915
0.000123933
-0.000114927
0.000921128
0.000177714
5.6148e-05
-0.000101755
-3.4918e-05
2.69957e-05
-1.90322e-05
1.01896e-05
-9.52315e-06
-0.000126468
-0.000213705
-6.03744e-05
-0.000167848
0.000680158
-0.000786958
0.000890076
-0.000454835
0.000992031
-0.000347703
2.16207e-06
-4.03208e-06
-9.07872e-07
0.000859345
-6.5888e-05
0.000820026
-2.34824e-05
0.000752353
0.000815456
-0.000143483
0.000249154
0.0010544
-0.000227523
0.00108155
-8.64625e-05
0.00107317
5.46709e-05
0.00103257
0.000164536
0.000954741
0.000255539
4.44771e-05
-2.99738e-05
-7.48778e-05
2.38447e-05
-1.42856e-05
1.12034e-05
-6.39091e-06
4.18802e-06
-2.50773e-06
0.000857918
-0.000632595
0.000976111
-0.000465896
8.65636e-07
-7.09693e-07
-4.22301e-08
0.000327125
0.00066636
-0.000178029
0.000786739
-7.08764e-05
0.00078277
-2.86316e-05
0.000728871
0.000814313
0.000389583
0.000615856
0.000525582
0.000385128
-0.00129089
0.00152162
0.00104586
-0.00029727
0.00107977
-0.000120377
0.00107828
5.61658e-05
0.0010379
0.000204915
0.000943961
0.000349477
-3.46888e-05
-5.40141e-05
5.87292e-05
-1.87223e-05
-3.02522e-05
-8.87114e-06
-1.62421e-05
-3.31084e-06
-8.06803e-06
-6.59474e-07
-3.36106e-06
-7.01706e-07
0.000995212
0.00033902
-0.000949104
0.000370082
-0.000994615
0.000686259
-7.75496e-05
0.000737417
-2.55238e-05
0.000700239
0.000772294
0.00056125
0.000535482
0.000762394
0.000405271
0.00165183
0.000472192
0.000928291
-5.45538e-05
-9.09973e-05
9.1537e-05
-2.96335e-05
-5.51724e-05
-1.4028e-05
-3.18475e-05
-5.20727e-06
-1.68888e-05
-1.04608e-06
-7.52224e-06
-1.74779e-06
0.000111182
0.000289945
-6.21067e-05
0.000224271
-0.000803294
0.000357243
-0.000665599
0.000680148
-2.028e-05
0.000674715
0.000398547
0.000184827
-4.04129e-05
-0.000117803
6.72191e-05
-2.23e-05
-7.32854e-05
-1.07685e-05
-4.3379e-05
-4.11144e-06
-2.35458e-05
-8.96963e-07
-1.07367e-05
-2.64475e-06
0.000251529
0.000190038
-0.000151622
0.000195038
-3.28728e-05
0.00013448
-0.00058053
0.000342839
-0.00032829
0.000654435
0.000277273
0.000372804
-1.18462e-05
-0.00012464
1.86823e-05
-6.78976e-06
-7.83418e-05
-3.39406e-06
-4.67747e-05
-1.38e-06
-2.55599e-05
-3.45012e-07
-1.17717e-05
-2.98977e-06
0.000147418
0.000124876
-8.22564e-05
0.000121353
-7.79369e-05
0.000117601
-1.5994e-05
6.92633e-05
-0.000306954
0.000326145
0.000183731
0.00024096
1.4818e-05
-0.000112618
-2.68397e-05
7.60553e-06
-7.11293e-05
3.42495e-06
-4.25941e-05
1.22084e-06
-2.33558e-05
2.04948e-07
-1.07558e-05
-2.78483e-06
0.000120559
7.16269e-05
-6.73097e-05
7.89879e-05
-3.98917e-05
6.99681e-05
-3.03041e-05
5.78384e-05
-4.56918e-06
1.91907e-05
0.000108423
0.000195867
-7.843e-05
5.59649e-05
0.000130888
1.64798e-05
-3.53972e-05
-9.37005e-05
7.81499e-06
-6.24644e-05
3.37923e-06
-3.81584e-05
1.22123e-06
-2.11978e-05
2.37119e-07
-9.77171e-06
-2.54771e-06
3.61968e-05
-4.29999e-05
4.42998e-05
-3.26217e-05
4.52011e-05
-1.51248e-05
3.34932e-05
-5.9589e-06
1.46215e-05
-4.5054e-05
2.51524e-05
7.58665e-05
-2.8331e-05
5.11327e-05
-6.09601e-05
-1.11867e-05
-3.8342e-05
-2.51543e-06
-1.8443e-05
-5.06315e-06
1.5581e-05
-2.44381e-05
2.18888e-05
-2.05889e-05
2.48889e-05
-1.23095e-05
2.14253e-05
-3.05683e-06
8.66259e-06
8.49453e-06
-2.2812e-05
3.94698e-05
-3.55976e-06
5.50883e-06
7.51007e-06
-9.45914e-06
-1.15309e-05
4.97005e-05
-5.66125e-05
-1.65941e-05
1.7385e-06
-8.60818e-06
1.53642e-05
4.87466e-06
-1.21057e-05
9.03399e-06
-1.15833e-05
1.20427e-05
-7.74266e-06
1.16522e-05
-2.53637e-06
5.60577e-06
-8.36246e-07
3.27103e-06
-5.99454e-06
-1.59254e-06
2.70321e-06
4.39817e-06
-2.17981e-06
7.49701e-06
-1.48446e-05
9.52737e-06
-4.84259e-07
-2.21119e-06
4.43395e-06
6.71328e-07
-4.40486e-06
2.56597e-06
-5.63769e-06
4.77819e-06
-4.31884e-06
5.54196e-06
-1.63243e-06
3.06939e-06
7.94705e-07
1.49512e-06
-3.12607e-06
4.34234e-08
1.63507e-06
-6.1056e-07
1.13396e-06
-9.64902e-07
2.70637e-06
5.75554e-06
-2.52419e-06
4.24142e-06
-2.10309e-05
1.93137e-05
-7.06578e-07
3.08121e-07
-8.58034e-08
-5.55009e-07
-9.84864e-07
1.32398e-07
-1.97129e-06
1.21953e-06
-2.07903e-06
2.12588e-06
-9.02764e-07
1.43696e-06
1.50422e-06
3.88442e-07
-1.09795e-06
8.78298e-07
6.6025e-07
2.95376e-07
7.29139e-07
-1.88595e-07
3.57646e-07
-3.22398e-07
5.04582e-07
-5.60307e-07
4.80174e-06
-5.10649e-07
6.32831e-07
-8.2876e-07
-5.48288e-07
3.014e-07
-4.74875e-07
-3.77591e-07
-5.86525e-08
-6.93098e-07
4.8017e-07
-4.33327e-07
5.34195e-07
1.28337e-06
-8.16692e-07
1.03754e-06
1.17085e-06
9.58983e-08
7.04711e-07
2.50917e-07
2.85392e-07
2.55152e-07
-2.87389e-08
6.39851e-08
-5.57246e-08
-6.72552e-07
-3.68441e-07
5.30345e-07
-3.20588e-07
4.05136e-07
-3.72391e-07
1.98917e-07
-3.25094e-07
-1.11148e-07
-7.88625e-08
-1.34065e-07
1.00867e-07
7.87547e-07
-9.86563e-07
1.48239e-06
8.86899e-07
-5.32746e-07
7.99157e-07
1.4532e-09
4.63795e-07
7.2519e-08
1.78123e-07
4.829e-08
8.26192e-09
-9.27177e-07
-5.2168e-07
7.76308e-07
-4.60573e-07
-2.28443e-07
-1.82644e-07
2.15392e-07
-2.19298e-07
9.31214e-08
-1.74371e-07
-1.56384e-08
-3.31973e-08
1.03717e-06
5.78753e-07
-8.28372e-07
4.80305e-07
-5.79965e-07
5.5364e-07
-2.87225e-07
4.79037e-07
-1.37875e-08
2.41085e-07
9.56131e-09
5.65533e-08
-1.11973e-06
-3.25842e-07
5.18391e-07
-6.67603e-07
-3.1464e-07
-2.87811e-07
-1.23276e-07
-9.15615e-08
8.76572e-08
-1.04865e-07
2.36152e-08
-4.8835e-08
-1.18666e-06
-7.95485e-08
1.4648e-07
4.14764e-07
-5.64256e-07
6.97395e-07
3.61666e-07
2.66988e-07
-2.93313e-07
3.0942e-07
-1.17607e-07
2.34156e-07
-6.85751e-09
6.61164e-08
-8.05312e-07
-1.88133e-07
-4.39468e-07
-1.62984e-07
-1.62092e-07
-5.27455e-08
-3.62593e-08
1.90518e-08
-2.52197e-08
-8.4736e-07
-3.75094e-08
2.64807e-07
4.33326e-07
1.95326e-07
1.31866e-07
-1.15759e-07
1.42799e-07
-2.62498e-08
5.92594e-08
-5.32688e-07
-9.49141e-08
-2.59102e-07
-6.59765e-08
-7.61627e-08
-1.28424e-08
-6.16857e-09
-5.55448e-07
-1.475e-08
1.42683e-07
2.43823e-07
8.33672e-08
5.15334e-08
-2.44931e-08
3.30089e-08
-3.15841e-07
-3.81763e-08
-1.26776e-07
-1.53641e-08
-1.90113e-08
-3.26835e-07
-3.75606e-09
5.96699e-08
1.14602e-07
2.02987e-08
8.51551e-09
-1.55883e-07
-9.0703e-09
-3.43758e-08
-1.59755e-07
1.15658e-10
1.45161e-08
2.88146e-08
-4.34466e-08
-4.33306e-08
0.000590881
-0.00137779
-0.00106577
0.000310144
-0.00052385
0.000844512
-0.000534368
0.000523067
0.00129378
-0.000770713
0.00109948
-0.00027831
0.00155119
-0.0018295
0.000485418
-0.00030154
-0.00136292
0.000592207
0.000133053
-0.000300901
-0.000390797
4.31318e-05
-0.00011801
-0.00025777
0.000309169
-0.000699966
0.00113843
-0.000829261
0.000604062
-0.000758858
0.00202757
-0.00143536
0.000198073
0.00127287
-0.0010748
0.000971333
0.000338738
0.00096695
-0.00172581
-0.000468413
-5.92804e-05
0.000220488
-0.000279768
-3.72816e-05
-0.000737247
-7.37356e-05
-0.000663512
0.0012976
-0.00137134
0.000468343
-0.00125746
0.00134394
-0.00181236
0.000269142
0.000845543
-0.000576401
-0.00118428
0.000718385
-0.00129184
0.000994569
-0.000573454
0.000874941
-0.00213241
-0.000937414
0.000838939
0.000812893
0.00176723
-0.000382321
0.000943571
-0.00137581
0.00125544
-0.000381245
-0.00108922
0.000706903
-0.000739747
-0.00121726
0.00127343
3.81755e-05
-0.00120022
0.000460471
-0.000995303
0.000278125
-0.000188231
0.000120374
-0.000308606
-0.000543137
0.000248277
-0.000791414
-0.00112306
0.000140686
-0.00126375
-0.00199172
0.00100859
-0.00194601
-0.000432194
-0.00014126
-0.000518011
0.000136766
-0.000659272
-0.000123193
-0.00186853
-0.0020692
-0.000844466
0.00165736
-8.20717e-05
0.000861499
0.000314407
0.00145282
0.00197177
0.00163765
5.53441e-05
0.000806155
-0.000868065
0.00092341
-0.000161162
-0.000369069
0.000407244
-0.000232303
-0.000791841
0.000630679
-0.00033137
-0.000631731
0.000300361
-0.000353606
5.36385e-05
-0.000241386
6.89282e-05
-0.000310315
-0.000722486
1.58873e-05
-0.000738373
-0.00124786
-0.000362574
-0.000885287
-0.0022311
0.00102723
-0.00125953
0.000367959
-0.00170124
-0.00152858
0.000269045
0.000929811
-0.00263105
-0.00130129
0.000626064
0.0013457
0.00143222
-0.000947582
0.00132039
0.000690069
0.00203577
0.000223564
0.00120865
0.00114697
0.000205987
0.000940986
0.000836666
0.000454662
0.000382004
0.000755022
0.000808661
-0.000719918
-0.000291632
1.8713e-06
-0.000293504
-0.000736502
-0.000336232
-0.00040027
-0.00122152
-0.000411867
-0.000809652
-0.00171316
0.00200305
-0.00173401
-0.000628
0.00169445
-0.00241437
-3.95538e-05
0.00121382
-0.00184182
-0.00049934
-0.000558068
0.000799027
0.000762318
-0.00107759
0.00183991
0.000958178
0.00216683
0.00150566
0.00066117
0.00244665
0.00282865
-0.000607587
0.00188993
-0.00128234
0.00302196
-0.000193307
-0.000320343
0.00052345
-0.00102279
-9.29932e-05
-0.00022735
-0.000493264
-0.000117242
-0.000376021
-0.000926894
-0.000403444
0.00165285
0.000237081
-0.00161329
-0.000228523
-0.000637926
0.000875007
-0.000884992
-0.000137798
0.000600486
-0.000829009
-0.000284506
-0.00103558
0.00039765
-0.000285577
0.000481444
0.00051345
2.18325e-05
-0.000525827
0.000503994
-0.00101374
-0.00010053
0.000301463
-0.000200932
-0.000626357
-0.000594187
0.00110764
0.00124572
0.00190689
-0.000308243
-0.000705501
-0.00159058
0.0011484
0.000758491
0.000955095
-0.000635489
-0.000262747
0.000360479
-0.000498278
-0.000609344
0.0002059
-0.000248864
-0.000118682
-0.000144065
-0.000494703
-0.000288804
-0.00112499
0.000295979
-0.000249981
-0.000535061
0.000285079
-0.000137411
-0.000456564
-4.17139e-05
0.00074107
-0.00044509
-0.000589887
0.000452476
-8.58929e-05
0.000321454
-1.9991e-05
0.000235561
-0.000192442
0.000172451
2.07141e-05
0.000125136
-0.00014585
-0.000171728
-0.000372661
-0.00021773
-0.00015493
-0.000102856
0.000233744
0.000378588
-0.000124472
0.00050306
0.000983165
0.000280145
-0.000497875
-0.000346212
-0.00105171
0.000446774
0.000536391
-0.000569776
-0.000481937
0.00120527
-2.8876e-05
0.000104743
0.000204868
0.000105032
-0.000249098
-1.13317e-05
-0.000418659
0.000169794
-0.000460373
-9.3975e-05
-0.000155123
-0.000382779
-0.000212985
0.000422337
3.01397e-05
-0.000707416
0.000262326
-0.000473558
1.31851e-05
-0.000211232
-0.000262115
0.000292255
-0.000302791
4.06758e-05
-6.72303e-05
-0.000208827
0.000141597
-3.63761e-05
-0.000116734
8.0358e-05
8.40202e-06
2.93639e-06
2.42279e-05
-2.71643e-05
1.04464e-05
-1.90182e-05
4.32461e-05
6.40607e-05
-8.30789e-05
7.24627e-05
-3.6439e-05
-4.66399e-05
-0.000182289
-1.79659e-05
-9.19837e-06
-6.46058e-05
-1.86575e-05
-8.00218e-05
-0.000102267
-0.000234952
-8.0097e-05
-0.000154855
-0.000577972
-9.55837e-05
0.000300452
0.000407477
0.000943867
-0.000365616
-0.000212356
0.000847553
9.63146e-05
6.95391e-06
3.25159e-05
0.000111696
2.84264e-05
8.32701e-05
0.000328878
4.96017e-05
-0.000204724
1.13584e-05
-6.78788e-05
-0.000136845
-0.000280863
-0.000267678
-0.000209162
-5.85166e-05
-0.000420394
-0.000128138
0.000168032
-2.64349e-05
-0.000208708
8.05694e-05
4.83421e-05
2.41206e-05
0.0001287
0.000102265
3.74981e-05
5.74798e-06
6.16188e-05
1.52753e-05
-3.80939e-05
-2.65119e-05
-0.000140361
-1.66823e-05
-1.97526e-06
-4.31941e-05
-7.96981e-06
7.23489e-06
8.12931e-06
3.97508e-05
-7.95061e-05
-6.08552e-05
-0.000234361
-0.0001152
-0.000119162
-0.000327556
0.000278651
5.02265e-05
0.000374966
4.74097e-05
-6.46139e-06
4.62122e-05
7.68087e-05
0.000127035
8.57342e-05
-2.41154e-05
0.000187999
-0.000210052
7.32066e-05
-0.000268569
-1.65941e-05
-4.80174e-06
-4.1219e-06
1.22512e-05
3.12029e-07
-2.58136e-05
-1.73806e-05
-8.66687e-05
-1.02798e-05
2.30996e-06
-2.76603e-05
-8.16077e-07
3.06385e-07
1.19448e-05
4.65186e-05
-5.07406e-05
-3.59281e-05
-0.000169902
-0.000122492
2.01254e-05
2.63932e-05
0.000147161
2.46682e-05
-3.61315e-07
1.23061e-05
2.01644e-06
-2.10224e-06
2.32847e-06
1.96715e-06
-4.59971e-07
-1.64228e-06
-1.28872e-06
-2.72106e-05
-4.497e-07
-6.31388e-05
-4.37153e-06
3.55545e-06
-4.82123e-06
2.45752e-06
8.97618e-06
3.32994e-06
3.53693e-05
3.97874e-05
-4.41803e-06
-6.44556e-05
1.31679e-06
2.8473e-06
-8.8015e-07
6.17723e-06
-2.97806e-07
-1.34447e-06
-1.17796e-06
-7.58368e-07
-2.10284e-06
-7.31937e-06
2.49815e-06
-6.0026e-06
-2.16546e-06
3.20299e-06
2.92056e-07
2.7902e-06
8.23004e-06
-2.05281e-06
3.812e-06
5.10154e-06
-1.28954e-06
-9.01052e-07
4.89016e-07
2.71398e-06
1.97141e-06
1.17147e-08
-1.18967e-06
-2.0411e-06
-1.32652e-06
-2.51619e-06
4.1345e-07
2.30053e-06
3.20365e-06
2.3026e-06
-1.12387e-06
-9.17233e-07
2.41337e-06
-1.10775e-07
1.14304e-06
3.44357e-06
-1.99781e-06
-2.91502e-06
-2.76856e-06
2.87932e-06
)
;

boundaryField
{
    movingWall
    {
        type            calculated;
        value           uniform 0;
    }
    fixedWalls
    {
        type            calculated;
        value           uniform 0;
    }
    frontAndBack
    {
        type            empty;
        value           nonuniform List<scalar> 0();
    }
    defaultFaces
    {
        type            empty;
        value           nonuniform List<scalar> 0();
    }
}


// ************************************************************************* //
