/*--------------------------------*- C++ -*----------------------------------*\
  =========                 |
  \\      /  F ield         | OpenFOAM: The Open Source CFD Toolbox
   \\    /   O peration     | Website:  https://openfoam.org
    \\  /    A nd           | Version:  8
     \\/     M anipulation  |
\*---------------------------------------------------------------------------*/
FoamFile
{
    version     2.0;
    format      ascii;
    class       volVectorField;
    location    "0.017";
    object      U;
}
// * * * * * * * * * * * * * * * * * * * * * * * * * * * * * * * * * * * * * //

dimensions      [0 1 -1 0 0 0 0];

internalField   nonuniform List<vector> 
424
(
(-0.00284688 -0.00015382 6.78178e-26)
(-0.0138221 0.000931595 0)
(-0.0124789 0.00264414 2.07196e-23)
(0.000140039 0.00304246 -1.08277e-24)
(-0.0443599 0.00485831 -2.50506e-23)
(-0.0217094 0.000815685 -3.37876e-23)
(-0.00285468 0.0131388 2.99011e-24)
(-0.000962289 0.0145915 -5.66727e-25)
(-0.0643411 0.00247765 -3.60106e-23)
(-0.0243378 0.000292868 3.10145e-23)
(-0.066313 0.00212785 9.41344e-23)
(-0.0227852 0.000429262 0)
(-0.00490239 0.0470463 1.28179e-24)
(-0.000926097 0.0230064 0)
(-0.0698565 0.000560101 3.29159e-23)
(-0.0241858 -4.16986e-05 1.74681e-23)
(-0.0556937 0.000653491 0)
(-0.0186473 7.45096e-05 0)
(-0.000339109 0.0255705 0)
(-0.00255815 0.0684243 -2.82531e-23)
(-0.0689308 3.15246e-05 3.48637e-23)
(-0.0243363 -0.000336028 -1.87087e-23)
(-0.0540361 0.000231792 0)
(-0.0186158 5.53518e-05 0)
(1.26282e-05 0.0246193 1.31192e-23)
(-0.00021922 0.0732089 2.5496e-23)
(-0.00218233 0.064736 -3.67887e-23)
(-0.000385557 0.0221861 -3.81392e-23)
(-0.0703316 -0.000356409 5.86281e-23)
(-0.0218413 -0.000814683 0)
(-0.0141676 -0.000934478 -1.30843e-22)
(-0.0029556 0.000176498 0)
(-0.0500311 -1.43344e-05 -1.05517e-22)
(-0.0171168 3.88559e-05 9.86696e-23)
(-0.0222245 0.0478947 6.84105e-23)
(0.00023618 0.0252672 0)
(0.000115181 0.0281458 -2.26593e-22)
(0.00337203 0.0623054 2.33431e-22)
(7.85387e-05 0.0701008 2.80487e-23)
(-0.000411188 0.0567508 3.92293e-24)
(-9.99876e-06 0.019002 -3.85057e-24)
(-0.0654042 -0.00243893 -1.0507e-22)
(-0.045858 -0.005156 1.3265e-22)
(-0.013444 -0.00295373 0)
(0.000173699 -0.00326306 -2.9594e-22)
(-0.0467208 -0.000259358 3.47223e-22)
(-0.0154013 -3.18805e-05 0)
(-0.106206 0.15213 -1.89172e-22)
(0.809145 0.0278831 -5.03898e-23)
(-0.000673321 0.0732826 -1.62723e-23)
(-0.00588454 0.0819703 0)
(-0.00528942 0.163763 -3.61264e-24)
(-0.000233703 0.0546766 0)
(-4.34042e-05 0.0189034 0)
(-0.00381139 -0.0144543 5.94665e-23)
(-0.00121132 -0.0160927 2.58856e-22)
(-0.0503019 -0.000592644 0)
(-0.0166409 -0.000144006 0)
(0.405048 0.118566 1.42081e-22)
(0.860477 -0.00379197 -1.20502e-23)
(0.00013912 0.0514712 -9.31573e-23)
(-9.40226e-06 0.0177975 8.8303e-23)
(-0.00632083 -0.0509275 0)
(-0.00100135 -0.0252222 0)
(0.548202 0.0126311 1.58135e-22)
(0.881204 -0.00215803 0)
(0.000373218 0.0488241 -8.02288e-23)
(9.37218e-05 0.0166414 7.38296e-23)
(-0.000329061 -0.0276489 6.01961e-23)
(-0.00285544 -0.0738428 -1.85769e-23)
(0.879132 -0.00128959 -1.36593e-23)
(0.621422 0.00196854 -1.16765e-22)
(-0.00233576 0.0527561 0)
(-0.000221654 0.020037 0)
(7.85203e-05 -0.027264 4.72195e-23)
(-0.000377815 -0.0782291 1.90824e-23)
(-0.00176307 -0.0621481 -3.95021e-22)
(-0.000316534 -0.0212638 0)
(0.87762 -0.000318554 1.29042e-23)
(0.631939 -0.000734411 -5.00009e-23)
(0.826514 -0.0267851 0)
(0.000333118 -0.0271205 -9.08879e-23)
(0.880216 0.00140856 0)
(0.885267 0.00205679 0)
(0.864917 0.00376986 0)
(-0.0194863 -0.0489417 0)
(0.00357872 -0.0672594 -4.79242e-22)
(0.000140987 -0.0292396 5.9385e-22)
(0.000293987 -0.0770057 4.36057e-23)
(-0.000521803 -0.0544444 0)
(-3.4165e-05 -0.0182586 0)
(0.634424 -0.000732295 -2.07624e-23)
(-0.108253 0.00180978 -4.17937e-23)
(0.446646 -0.115056 9.64274e-22)
(-0.000484666 -0.0785319 -8.90187e-23)
(0.636666 0.00128853 -1.23547e-22)
(0.638438 -0.00130379 2.56952e-22)
(0.566728 -0.010616 -1.24125e-21)
(-0.108618 -0.153051 -1.80542e-22)
(-0.00663312 -0.175696 6.99232e-22)
(-0.00668509 -0.0853232 -5.67694e-22)
(4.99733e-05 -0.0540842 -3.09248e-23)
(3.32704e-05 -0.0186837 2.99907e-23)
(-0.0964199 2.95015e-05 0)
(-0.0415765 -6.38054e-05 -4.05446e-23)
(0.000373786 -0.0560629 -1.383e-22)
(5.86641e-05 -0.0194405 -1.3149e-22)
(-0.0987106 -0.000326409 2.38346e-23)
(-0.0348344 -1.09564e-06 0)
(-5.68504e-05 -0.0548354 9.9506e-23)
(8.60135e-05 -0.0189967 -9.48603e-23)
(-0.0921735 -0.000140786 -2.47597e-22)
(-0.036146 -0.000113379 -2.25681e-23)
(-0.00308203 -0.0571741 0)
(-0.000248356 -0.0224438 0)
(-0.0850691 0.000329474 1.35353e-22)
(-0.0335574 -6.76025e-05 0)
(-0.0965267 -0.00155632 0)
(-0.0302478 -3.28423e-06 1.21075e-22)
(-0.035996 -9.60362e-05 0)
(-0.0742327 0.0158608 2.51822e-24)
(-0.0222492 0.0110169 0)
(-0.0592574 0.0327052 0)
(-0.0112847 0.0233496 -1.70582e-24)
(-0.120951 0.0997999 2.57948e-23)
(-0.146654 0.0691509 4.68846e-22)
(-0.0807316 0.127134 3.66236e-23)
(-0.10039 0.108996 -1.21549e-23)
(-0.144088 0.0584438 -7.89018e-22)
(-0.148583 0.0349144 -2.58857e-23)
(-0.127783 0.0267305 -7.078e-22)
(-0.114007 0.026794 -1.91664e-22)
(-0.135513 0.0442961 -6.30777e-22)
(-0.154026 0.0476014 8.23795e-22)
(-0.160971 0.02281 -5.92376e-22)
(-0.167365 0.0252538 1.06824e-22)
(-0.10429 0.00624873 1.80465e-22)
(-0.153746 0.00691451 1.22862e-21)
(-0.10269 0.00514996 2.57727e-22)
(-0.127151 0.00273567 3.3605e-22)
(-0.0340585 0.0600247 2.72802e-23)
(-0.0960237 0.104994 0)
(-0.0664147 0.0629674 -2.25817e-23)
(-0.0941861 0.0847743 0)
(-0.0683098 0.128855 5.50874e-23)
(-0.0700181 0.137995 -1.41859e-22)
(-0.017845 0.0802937 -5.8575e-25)
(-0.0467944 0.153816 2.19057e-22)
(-0.0653109 0.125426 -4.86512e-23)
(-0.0441435 0.147221 2.83751e-22)
(-0.0577895 0.0977849 -6.524e-23)
(-0.0916729 0.0867696 -2.70042e-23)
(-0.102268 0.062239 0)
(-0.0895012 0.0337884 1.21176e-22)
(-0.0219754 0.00228261 -2.93754e-22)
(-0.0616816 0.013253 3.38907e-22)
(-0.148966 0.00827489 0)
(-0.166334 0.00865852 0)
(-0.174605 0.00216328 -8.52646e-22)
(-0.116411 0.000700024 -1.53921e-21)
(-0.168665 0.0022305 2.78472e-21)
(-0.0958762 0.00145958 7.03492e-22)
(-0.134667 -0.000239476 7.36918e-22)
(-0.0323442 0.121868 -2.61476e-23)
(-0.0411435 0.14208 2.54701e-23)
(-0.0316911 0.165317 -2.35134e-22)
(-0.00598583 0.110079 7.86766e-22)
(-0.0192924 0.169698 1.16536e-22)
(-0.0243435 0.141027 4.926e-23)
(-0.0138906 0.15661 -2.98512e-22)
(-0.031516 0.0839485 1.75322e-22)
(-0.0193353 0.123394 -1.15633e-21)
(-0.0135105 0.0606313 0)
(-0.00230391 0.0216451 0)
(-0.158152 -0.000864106 8.71215e-22)
(-0.173726 -0.000146752 -2.59848e-21)
(-0.11895 0.000659169 -9.17931e-22)
(-0.166039 0.000127065 2.90803e-21)
(-0.0938176 -4.19862e-05 -1.15115e-21)
(-0.135382 -0.000438719 1.43559e-21)
(-0.00516888 0.152779 -7.03618e-22)
(-0.00629899 0.169714 5.24019e-22)
(0.00105823 0.11984 0)
(-0.00461697 0.149151 0)
(-0.00169631 0.174276 -1.05582e-21)
(-0.00373486 0.0971644 7.89279e-22)
(-0.000388103 0.124674 0)
(-0.158006 0.00187805 8.7246e-22)
(-0.17192 0.00111955 1.99784e-22)
(-0.122514 0.000631839 1.25816e-21)
(-0.165422 -0.00166058 -1.91335e-21)
(-0.170613 -0.0032305 -2.01483e-21)
(-0.0903135 -0.000680625 -2.2656e-21)
(-0.127384 -0.000638848 9.84252e-22)
(0.0034062 0.156647 7.69386e-22)
(0.000844724 0.114623 -8.14716e-22)
(-0.0005332 0.168782 2.56166e-21)
(0.00205721 0.174034 -1.97972e-21)
(-0.000665806 0.0985776 0)
(0.000582061 0.136019 0)
(-0.150464 -0.00599041 -1.44744e-21)
(-0.168442 -0.00840977 0)
(-0.167362 -0.0256517 1.76416e-21)
(-0.106282 -0.00609589 1.05417e-21)
(-0.157828 -0.0330237 -1.96494e-21)
(-0.159324 -0.0306663 -3.24531e-21)
(-0.144377 -0.00696016 1.95955e-21)
(-0.150355 -0.0226283 1.79043e-21)
(-0.0896305 -0.000756296 -2.94576e-22)
(-0.114912 0.000350772 0)
(-0.000332347 0.156442 -4.29577e-22)
(-0.00386479 0.123666 0)
(0.000959879 0.167496 0)
(-0.00028994 0.172405 3.28633e-22)
(-4.55749e-05 0.0929567 0)
(0.00162731 0.134543 0)
(-0.138803 -0.0611527 0)
(-0.150544 -0.0542131 -2.15999e-21)
(-0.150513 -0.0578635 2.91765e-21)
(-0.125692 -0.0815164 0)
(-0.07322 -0.0151217 0)
(-0.118219 -0.0257568 -1.21611e-21)
(-0.135714 -0.0327154 -2.27937e-21)
(-0.124277 -0.0640604 2.79873e-21)
(-0.135653 -0.0762677 -1.47745e-22)
(-0.0602249 -0.0314409 -7.00737e-22)
(-0.0234048 -0.0110937 0)
(-0.0128266 -0.024157 2.14801e-21)
(-0.127947 -0.0313162 7.39675e-22)
(-0.131888 -0.0530891 -1.83745e-21)
(-0.0817987 -0.00140452 -1.30524e-21)
(-0.111038 -0.0250639 1.86515e-21)
(-0.110266 -0.0674977 8.62283e-22)
(-0.113462 -0.0827335 0)
(-0.0979128 -0.0957354 1.57227e-21)
(-0.0316529 0.229038 3.18804e-24)
(-0.131131 0.294994 -2.99061e-21)
(-0.142154 0.222415 3.13618e-21)
(0.117131 0.18589 -2.53266e-21)
(-0.0158861 0.160003 1.44309e-21)
(-0.0183296 0.131099 -1.74735e-21)
(-0.0505137 0.198533 -8.93564e-22)
(-0.0172045 0.170557 -3.0861e-21)
(0.000727785 0.16422 -7.9333e-22)
(-0.00787651 0.16809 3.20006e-21)
(0.00107756 0.0884024 0)
(0.00211039 0.125532 2.91594e-22)
(-0.0660441 0.188544 4.24118e-21)
(-0.106258 0.183195 -1.32193e-21)
(-0.100561 -0.111323 4.14901e-21)
(-0.119647 -0.0975393 2.47455e-21)
(-0.117443 -0.0995168 -3.32741e-21)
(-0.0715517 -0.0573846 5.3187e-22)
(-0.0895068 -0.111881 0)
(-0.094617 -0.0800526 2.47584e-22)
(-0.0354449 -0.0585875 -3.00234e-21)
(-0.0793279 -0.131816 -5.83987e-21)
(-0.0209751 -0.0826217 0)
(-0.065461 -0.132861 2.05042e-21)
(-0.0465635 -0.149169 0)
(-0.0744595 -0.0258369 3.18653e-21)
(-0.0902864 -0.0583157 0)
(-0.0566353 -0.0997346 -4.67402e-21)
(-0.0811575 -0.0890276 1.13931e-21)
(-0.016358 -0.00135755 1.36752e-21)
(-0.047936 -0.00890824 -5.48951e-21)
(-0.111229 0.23324 -5.35234e-22)
(-0.135643 0.19556 0)
(0.00540541 0.19216 1.97722e-21)
(-0.145045 0.103391 -1.2988e-21)
(0.259003 0.0558691 9.63884e-22)
(-0.0287174 0.167221 2.02178e-21)
(-0.0515873 0.165997 -2.27794e-21)
(-0.00887854 0.139546 -1.67637e-21)
(-0.019826 0.14166 2.89293e-21)
(0.00074863 0.0858728 1.35187e-21)
(-0.0064806 0.110328 -8.93927e-22)
(-0.166279 0.0151778 0)
(-0.11561 0.116859 -1.92236e-21)
(-0.148924 0.0812741 1.0771e-22)
(-0.156068 0.0425809 3.15168e-21)
(-0.057287 0.127159 -1.23256e-21)
(-0.0913087 0.104478 1.20084e-21)
(-0.0588322 -0.136673 2.2491e-22)
(-0.0585904 -0.150873 5.0537e-22)
(-0.0440959 -0.16067 0)
(-0.0349193 -0.118569 -2.83972e-22)
(-0.0080218 -0.120469 1.90215e-23)
(-0.0263587 -0.165774 -3.58292e-21)
(-0.0287611 -0.144507 1.83196e-21)
(-0.0198505 -0.155996 -2.02619e-21)
(-0.0311951 -0.0871735 3.19489e-21)
(-0.022885 -0.12368 -2.65118e-21)
(-0.011812 -0.0574766 0)
(-0.00205576 -0.0201906 0)
(-0.063943 0.0546232 -4.56904e-22)
(-0.126793 0.0245784 1.64701e-21)
(0.0960109 0.0582663 -6.75801e-22)
(0.367099 0.0171391 1.68819e-21)
(-0.136404 0.0149865 0)
(-0.184241 0.00934376 0)
(-0.0182274 0.109244 -2.09763e-21)
(-0.0365431 0.104513 0)
(-0.173363 -0.00666932 0)
(-0.171007 -0.00113688 0)
(-0.00707828 0.0802468 0)
(-0.00747756 0.0893755 -9.5356e-22)
(-0.131043 0.000696477 0)
(-0.129719 0.0277647 -3.19243e-21)
(-0.0479835 0.0564747 0)
(-0.0881076 0.0603221 0)
(-0.103288 0.033945 2.70521e-21)
(-0.158026 -0.0124381 5.68181e-22)
(-0.0113296 -0.16884 2.50879e-21)
(-0.0107062 -0.155298 0)
(0.000222445 -0.125921 -4.01488e-23)
(-0.00676379 -0.148367 0)
(-0.00328879 -0.172811 0)
(-0.00423535 -0.09585 -3.50688e-21)
(-0.00259021 -0.12348 3.19927e-21)
(-0.0575691 0.0164581 0)
(0.112848 0.0120224 -1.4002e-21)
(0.366827 0.00261508 0)
(-0.193459 0.00394173 -4.70886e-22)
(-0.16671 0.00883617 1.41026e-23)
(-0.148555 0.00521505 -2.51743e-22)
(-0.181279 0.00594215 1.31094e-22)
(-0.00591354 0.0266502 5.50262e-21)
(-0.0355221 0.0202885 -1.03193e-21)
(-0.0745103 0.00730564 -2.12685e-21)
(-0.0871761 -0.0160694 0)
(-0.0882392 -0.00729689 0)
(0.000192363 0.00812917 1.73183e-21)
(-0.000624857 0.0200329 -6.53361e-21)
(-0.0667384 -0.00626116 0)
(0.00187421 -0.162161 -5.43467e-22)
(0.00038899 -0.125704 3.9799e-23)
(-0.00171525 -0.166709 -4.62269e-21)
(0.0010913 -0.173554 4.29989e-21)
(-0.0013827 -0.0935934 0)
(0.000257558 -0.13343 -5.34749e-22)
(0.086696 -0.00250709 0)
(0.354693 -0.00154709 0)
(-0.18 -0.00170838 4.20813e-22)
(-0.106715 -0.00194105 -3.60344e-22)
(-0.154627 0.000233297 3.3342e-22)
(-0.191848 0.00676938 -5.51183e-22)
(-0.0255881 -0.000975356 0)
(0.129325 -0.185426 -5.75372e-21)
(-0.151211 -0.225017 9.81176e-21)
(-0.00041349 -0.160229 1.67097e-22)
(-0.0033293 -0.1279 0)
(0.000972263 -0.166312 3.9458e-21)
(-0.000465198 -0.172474 -2.87607e-21)
(0.000595379 -0.0910236 0)
(0.00229676 -0.138209 -1.0278e-21)
(0.0785867 -0.000358907 -3.82791e-23)
(0.348728 -0.0033429 -2.09041e-21)
(-0.20195 -0.00307715 -2.13093e-21)
(-0.115562 -0.000455473 -6.20587e-22)
(-0.15762 0.0016599 5.2773e-22)
(-0.199564 -0.00175553 0)
(0.261657 -0.0519934 -6.95388e-21)
(0.0213154 -0.163971 -6.39871e-21)
(-0.0151801 -0.161038 0)
(-0.0197165 -0.135022 0)
(0.119481 -0.00804399 -3.05926e-21)
(0.374911 -0.0152686 2.60372e-21)
(0.119597 -0.0572355 1.15704e-20)
(-0.0565293 -0.202468 0)
(-0.117949 -0.21458 9.18018e-21)
(-0.0365183 -0.244057 1.59947e-21)
(-0.150438 -0.301081 -2.59173e-21)
(-0.0696821 -0.183718 -1.11976e-23)
(-0.0156105 -0.17009 -3.83556e-21)
(0.000270717 -0.165305 1.64893e-21)
(-0.00642941 -0.167756 6.06961e-21)
(0.00114889 -0.10005 -3.64248e-21)
(0.000262527 -0.135556 2.36514e-21)
(-0.0611426 -0.0136188 2.44786e-21)
(-0.1821 0.00253836 3.71667e-21)
(-0.177866 -0.00581567 -3.36253e-21)
(-0.149423 7.59464e-05 2.47558e-22)
(-0.182887 -0.000144644 0)
(-0.0727825 -0.0624791 -3.84029e-21)
(-0.155321 -0.166846 -2.62497e-21)
(-0.0470467 -0.163097 -6.38288e-21)
(-0.0283698 -0.164243 7.54872e-22)
(-0.139266 -0.0135102 0)
(-0.127199 -0.0254015 -9.94641e-22)
(-0.137369 -0.165083 -6.7346e-21)
(-0.094055 -0.16783 8.68807e-21)
(-0.0783696 -0.120583 6.38313e-21)
(-0.0546483 -0.128798 0)
(-0.00788934 -0.133374 0)
(-0.0187013 -0.136833 -2.5097e-21)
(-0.00134483 -0.0932683 0)
(-0.00762181 -0.11367 0)
(-0.196959 0.00041004 2.80953e-21)
(-0.18814 -0.00396953 -5.42109e-21)
(-0.141968 0.00220746 -2.60684e-22)
(-0.176144 -0.00294735 -1.58917e-21)
(-0.165408 -0.0148272 5.15457e-21)
(-0.155678 -0.0667145 -4.45463e-21)
(-0.0203755 -0.107865 1.50649e-21)
(-0.0373569 -0.106098 3.61974e-21)
(-0.182734 0.00650573 4.4432e-21)
(-0.164631 0.00581953 -1.7848e-22)
(-0.0470669 -0.057086 -7.99557e-21)
(-0.0818768 -0.0704518 3.84445e-22)
(-0.115611 -0.0557867 1.41841e-21)
(-0.00753783 -0.0785777 0)
(-0.00954222 -0.0869313 -2.74917e-21)
(-0.142525 -0.00442574 -2.15115e-21)
(-0.165304 0.00950051 1.52493e-21)
(-0.0926998 0.0183062 1.42231e-21)
(-0.00833451 -0.0235916 0)
(-0.0372672 -0.0158132 3.5569e-21)
(-0.108623 0.014318 1.60036e-22)
(-0.0987921 -0.00452736 0)
(2.53056e-05 -0.00850532 0)
(-0.00182227 -0.0198398 0)
(-0.0641826 0.00727589 -3.73147e-21)
(-0.0235706 0.00122364 2.93681e-21)
)
;

boundaryField
{
    movingWall
    {
        type            fixedValue;
        value           uniform (1 0 0);
    }
    fixedWalls
    {
        type            noSlip;
    }
    frontAndBack
    {
        type            empty;
    }
    defaultFaces
    {
        type            empty;
    }
}


// ************************************************************************* //
