/*--------------------------------*- C++ -*----------------------------------*\
  =========                 |
  \\      /  F ield         | OpenFOAM: The Open Source CFD Toolbox
   \\    /   O peration     | Website:  https://openfoam.org
    \\  /    A nd           | Version:  8
     \\/     M anipulation  |
\*---------------------------------------------------------------------------*/
FoamFile
{
    version     2.0;
    format      ascii;
    class       surfaceScalarField;
    location    "0.014";
    object      phi;
}
// * * * * * * * * * * * * * * * * * * * * * * * * * * * * * * * * * * * * * //

dimensions      [0 3 -1 0 0 0 0];

internalField   nonuniform List<scalar> 
662
(
-1.87287e-05
1.46724e-05
4.05653e-06
1.876e-05
-3.74887e-05
-7.99939e-05
3.3211e-05
6.14552e-05
-1.57458e-05
1.98023e-05
-0.000137338
7.61045e-05
9.56368e-06
-4.70523e-05
8.48833e-05
-6.74181e-05
-2.03359e-05
4.01382e-05
-0.000163629
3.58545e-05
1.68751e-06
-4.87399e-05
1.87137e-06
-0.000111189
-4.08182e-06
0.000113399
-3.15254e-05
3.33967e-05
0.000147909
-8.3362e-05
5.09631e-05
-1.08249e-05
-0.000166685
4.74323e-06
-7.71528e-07
-4.79683e-05
1.07063e-06
-0.000106715
-5.54414e-06
-3.04547e-05
5.2812e-05
-1.84885e-06
0.000176792
-3.97078e-05
-0.000164681
-2.77583e-06
-2.24606e-06
-4.57223e-05
3.3901e-06
-9.42646e-05
-1.58406e-05
-2.70646e-05
5.25062e-05
3.05743e-07
0.000180014
-5.07075e-06
-1.28319e-06
0.000112875
-0.000113072
1.48018e-06
3.19765e-05
-3.32597e-05
-0.000160065
-6.8621e-06
-3.73667e-05
-8.35553e-06
-2.02008e-05
-1.71659e-05
-1.55338e-05
-4.66696e-06
4.42223e-06
-8.04924e-05
-1.81945e-05
-2.26424e-05
-0.000139884
-0.000758293
0.000898177
5.57079e-05
-3.20163e-06
8.60475e-05
-3.03397e-05
-5.38366e-05
0.000180537
-2.16534e-07
-4.80332e-07
0.0001101
3.25517e-06
3.14962e-05
-0.000138052
-3.03686e-05
-8.7406e-05
-6.78114e-05
-4.07113e-05
-6.22286e-05
2.01317e-05
-2.47987e-05
3.11148e-06
-7.03942e-05
-1.32097e-05
-1.95309e-05
-0.000381786
0.000702763
-0.00107927
-0.000951907
0.00185008
0.000197664
-2.03287e-05
0.000278077
-0.000110753
-0.000157546
-3.29684e-06
9.77311e-05
1.56658e-05
2.81993e-05
-0.000105551
8.49715e-05
2.45415e-05
-4.93402e-05
-2.10772e-07
-3.41064e-07
-6.98423e-05
-1.97417e-05
0.00134537
-0.00159451
-0.000104783
0.00195487
-3.77593e-06
8.50677e-05
1.64393e-05
2.44234e-05
-0.000178201
9.71915e-05
-6.01482e-05
1.0808e-05
0.00159769
-0.000357104
0.00198742
-3.25498e-05
-2.62746e-06
7.3162e-05
1.45332e-05
2.1796e-05
-6.23923e-05
2.24412e-06
-0.000206312
3.89188e-05
0.0019857
1.71234e-06
0.00169003
-0.00012489
-5.53011e-06
2.97663e-05
4.89258e-05
1.62659e-05
-6.17471e-05
-6.45261e-07
-0.000210496
6.42823e-06
-1.3915e-07
-0.00010253
9.93656e-05
3.30377e-06
-2.90495e-05
2.89103e-05
0.0019559
2.98038e-05
0.00171099
-1.92479e-05
-0.00180376
0.000949903
0.000853859
-6.23283e-05
5.81257e-07
0.00191185
4.40461e-05
0.00187411
3.77439e-05
7.03487e-05
0.000154366
0.000795537
9.48585e-05
5.95076e-05
3.25302e-05
-0.000210864
-2.7717e-07
-3.95675e-07
-0.000103218
1.08356e-06
-2.94451e-05
0.00169187
4.89213e-05
-0.000181133
-7.86924e-06
4.20435e-05
0.000146959
-0.00135409
0.00077932
0.00142863
-0.000221875
1.15923e-05
0.00165163
8.42848e-05
0.00156732
0.000122061
0.000283573
0.00040464
0.00117022
0.000303412
0.000160735
0.000114067
-7.05444e-08
-0.000102215
-9.32338e-07
-2.95157e-05
-0.000188614
-1.52105e-06
9.0026e-06
-5.56186e-05
4.77494e-05
3.70742e-07
-0.000100465
-2.12046e-06
-2.91449e-05
-0.000172443
4.88524e-06
-2.10565e-05
-5.71397e-05
1.45063e-06
-9.10002e-05
-1.09159e-05
-2.76943e-05
-0.000149448
7.51922e-06
-3.05144e-05
-5.22544e-05
7.98646e-06
-4.25303e-05
-5.64564e-05
-1.97078e-05
-0.000133891
4.38792e-06
-1.99447e-05
-4.47352e-05
3.73925e-06
-1.96186e-05
-0.000118012
-4.03472e-05
-3.6608e-05
0.000447812
-0.000371708
-0.000126406
0.000187861
0.000321406
0.000120443
-0.000856023
0.00046723
0.000388793
-0.000480998
-0.000375025
-0.000599991
0.000333367
0.000266624
-0.000132761
-0.000672383
0.000191386
-0.000109317
-0.000563066
-0.000332151
0.000222834
0.000188163
-0.00055987
-0.000568848
0.000757011
-0.000943873
3.52513e-05
-0.000598318
-0.000908622
-0.000524016
-9.04204e-05
-0.000507897
-0.000336233
-0.000426654
-0.000368547
0.00048899
-0.000709871
0.00109866
-4.71407e-05
0.000102973
0.000995691
0.000436339
0.000405628
8.87385e-05
0.000347601
0.000381266
-0.000114641
0.000470004
-0.000428255
0.000313614
-0.000561016
-0.00036963
-0.000146796
3.33967e-05
0.000193201
-0.000717217
-0.000715421
-0.00122332
-0.000712474
-5.1358e-05
-0.00117196
-0.000432198
-0.000483556
-0.000214862
0.000620489
0.000780829
0.00112843
0.000580781
0.000214685
0.000913745
0.000363897
0.000106107
0.000578581
0.000167282
0.000146332
0.000273389
3.32597e-05
0.000108508
-0.000820982
-0.00106345
-0.000823758
2.63908e-05
-0.00108984
-0.000499396
-0.000473005
-0.000154378
0.000735159
0.000759367
0.000730089
0.000395402
0.00018318
0.00115477
0.00027487
0.000458049
9.72075e-06
-0.000833478
-0.00108012
-0.00084034
-0.00113418
5.40561e-05
-0.000737522
-0.000396656
-0.0004912
-0.000437144
0.000699939
3.01497e-05
0.000699722
0.00116709
-1.2318e-05
0.00119724
0.000461305
0.000448987
-0.000296173
-0.000544168
-0.0010337
-0.000841317
-0.000192379
-0.000574536
-0.000349195
-0.000492121
0.000355069
-0.000547447
-0.000628114
0.000231459
-0.000273046
-0.000450354
-0.000218895
0.000820817
-0.000121095
0.000800488
0.00126436
-6.71258e-05
0.00114327
0.000464653
0.000397527
0.000277828
-0.000414091
0.000136263
-0.000269619
-0.000618814
-0.000122249
-0.000291842
0.000314921
-0.000382733
-0.000259615
-0.000751736
5.35588e-05
-0.000805295
-0.000565255
-0.000116041
-0.000266692
-0.000178269
-9.32976e-05
-0.000354894
8.18482e-05
-0.000218632
-0.000219236
-0.000137388
-0.000145585
-7.3047e-05
-0.000267833
-0.000121459
-0.000146374
0.00137913
-0.00153667
0.00199516
-0.000616032
0.000915891
-0.000678621
0.000787785
1.27033e-05
0.000677032
-0.000859643
-0.00074559
0.000758294
0.00120348
-6.02147e-05
0.000457892
0.000413966
0.000353751
0.000444988
-0.00130463
0.00130248
-0.000857494
0.000444726
-0.000566185
-0.000152884
-0.000412372
9.00989e-05
-0.000356791
0.000715196
-0.00112757
-0.000450089
-0.000393233
-0.000172953
-0.000352897
-0.000478351
8.51188e-05
2.02435e-05
-0.000498595
-0.000226972
8.9584e-05
-0.000300019
0.000446393
-0.000361274
-1.97417e-05
-0.00224971
0.00163368
-0.000947227
0.000955056
-0.000717583
-0.000229644
0.000597952
0.0011103
-0.00035201
-0.000194327
0.000586268
-0.000128376
0.000234258
0.000368285
0.000239908
0.000590683
-6.2146e-05
-0.000528537
-0.000165672
-0.000691822
-0.000883255
-0.000292572
0.000239618
-0.000433945
-0.000452204
-0.000768091
-0.000359476
-0.000941044
-0.000920801
-0.000712374
-0.000673455
-7.51853e-05
-0.000845615
-0.000447978
-5.06168e-05
-0.000523164
-0.000232998
-0.000128276
-0.000283615
-2.89103e-05
-0.000818445
0.000588801
-0.000880591
0.00118675
0.00106186
-0.000307237
-0.000573354
0.00053911
-0.000846347
0.000430892
-0.000196634
-3.05272e-06
0.000794486
-0.000255376
0.000265948
0.000269674
7.30404e-05
0.000368592
-0.000102643
7.60199e-05
0.000191892
-0.000194945
-0.000260312
-0.000184292
-0.000404316
0.00014894
-0.000112323
-0.000733292
-0.000785778
-0.00077935
-0.000396212
-0.000126952
-0.0011295
-0.000280311
-0.000407263
0.000166994
-0.000740348
0.00122886
0.00120961
-0.000487208
-0.000359139
-0.00122756
-0.000362272
-0.000721411
0.000138232
-6.51917e-05
-5.67125e-05
-0.000241005
0.000343648
-0.000194708
1.62659e-05
-4.77494e-05
-0.000829094
4.97444e-05
-0.000829371
-0.00109438
-3.512e-05
-0.00104464
-0.00040618
-0.0004413
0.00118944
2.01709e-05
0.00123836
-0.00116214
-6.54178e-05
-0.00114197
-0.000712409
-0.000777827
0.00114533
0.000283296
0.00231555
-0.000815659
-1.37122e-05
-0.000804067
-0.000912501
-0.000132138
-0.000926213
-0.000442232
-0.00057437
0.00122867
9.69176e-06
0.00131295
-0.00128224
0.00014027
-0.00127254
-0.000798883
-0.000658613
0.00107635
-0.000792774
0.00135964
-0.000821226
1.71588e-05
-0.000707158
0.00118979
0.000123166
0.00131185
0.000519074
-0.00175062
0.00104346
-0.000725664
0.00208531
-0.00158989
0.00102557
1.78943e-05
0.000775449
-0.00075829
-0.00111085
0.000184636
-0.000335401
-0.00057649
-0.000391854
0.000725137
-0.000601971
-0.0013554
8.28527e-05
-0.000630261
-0.000689128
-0.000606275
-0.00040886
0.000927935
0.00167645
0.00104121
-1.56382e-05
0.000282917
-0.000979697
0.000377726
-5.17624e-05
0.000647569
0.00102888
0.000665463
0.000380554
0.00028491
0.000364915
-0.000579318
0.000243917
-0.0002964
-0.00040277
-0.000158853
-0.000839992
0.000209732
-0.000462267
-0.00062622
-0.000416488
-0.00067929
0.000627527
0.000349588
-0.000434162
0.000137761
-6.92463e-05
-0.000688029
0.000225763
-6.05021e-05
-0.000272122
0.000202876
1.27877e-05
0.000362376
-0.000201383
-6.36221e-05
-0.000436106
-0.000210344
-0.000364963
0.00015462
-0.000139786
7.61642e-05
6.30895e-05
-0.000425466
-1.97078e-05
3.6608e-05
)
;

boundaryField
{
    movingWall
    {
        type            calculated;
        value           uniform 0;
    }
    fixedWalls
    {
        type            calculated;
        value           uniform 0;
    }
    frontAndBack
    {
        type            empty;
        value           nonuniform List<scalar> 0();
    }
    defaultFaces
    {
        type            empty;
        value           nonuniform List<scalar> 0();
    }
}


// ************************************************************************* //
