/*--------------------------------*- C++ -*----------------------------------*\
  =========                 |
  \\      /  F ield         | OpenFOAM: The Open Source CFD Toolbox
   \\    /   O peration     | Website:  https://openfoam.org
    \\  /    A nd           | Version:  8
     \\/     M anipulation  |
\*---------------------------------------------------------------------------*/
FoamFile
{
    version     2.0;
    format      ascii;
    class       volScalarField;
    location    "0.001";
    object      p;
}
// * * * * * * * * * * * * * * * * * * * * * * * * * * * * * * * * * * * * * //

dimensions      [0 2 -2 0 0 0 0];

internalField   nonuniform List<scalar> 
424
(
1.7922e-07
0.109027
0.0172118
0.0354743
0.144808
0.32294
0.0163593
-0.0861347
0.353806
0.617895
0.437711
0.443192
-0.12559
-0.310533
0.63314
0.949384
0.593022
0.59559
-0.611308
-0.347068
0.946514
1.28527
0.833908
0.834519
-0.945891
-0.632636
-0.405701
-0.412531
1.26595
1.58475
1.81134
1.93254
1.0986
1.09729
-4.28051
-1.27458
-1.64138
-2.1367
-0.950359
-0.561423
-0.564373
1.55066
1.77115
1.91319
1.89382
1.33629
1.33366
-3.5625
-3.85613
-1.26459
-1.61674
-1.87907
-0.80123
-0.802251
1.91426
2.00713
1.48537
1.48253
-3.35063
-1.99822
-1.07066
-1.07088
2.04851
2.22204
-1.73334
-1.02292
-1.30638
-1.30919
2.51804
2.25897
-0.0375853
-0.923909
-1.44746
-1.46105
2.84446
2.53645
2.33817
2.3427
1.00862
0.0090675
5.83446
3.18119
2.0416
3.00473
3.94833
6.28441
4.03986
3.53939
2.8441
2.49552
2.49852
1.00744
-0.631744
5.32151
3.16294
2.01181
2.92347
3.71073
5.5125
3.7566
3.50584
2.73673
2.73796
-0.188028
-0.643457
3.005
3.00576
0.539481
-0.188681
3.23501
3.23913
1.36511
0.539727
3.37991
3.39562
2.09594
1.36223
2.53784
2.0947
2.54846
0.146621
0.0236186
0.0583069
0.0103102
0.047723
0.167204
-0.0816021
-0.0101943
0.215428
0.309298
0.329256
0.193557
0.179411
0.218907
0.365314
0.342
0.352588
0.489073
0.431615
0.498335
-0.0212355
-0.0158018
0.0264954
0.0273444
-0.0906305
-0.117667
-0.124371
-0.217588
-0.131914
-0.2343
-0.0879512
0.0260174
0.105108
0.160217
0.246261
0.195788
0.446354
0.436831
0.546336
0.633464
0.699366
0.59624
0.729634
-0.165359
-0.154891
-0.262422
-0.347289
-0.347333
-0.319285
-0.377402
-0.132847
-0.331769
-0.159528
-0.210602
0.796446
0.794716
0.950822
0.999456
0.83895
0.999176
-0.446074
-0.433728
-0.63172
-0.465515
-0.530641
-0.407222
-0.477791
1.14555
1.14997
1.26968
1.26823
1.39905
1.10515
1.24589
-0.761316
-0.94471
-0.681925
-0.770154
-0.564356
-0.701818
1.45339
1.47551
1.58693
1.54729
1.6671
1.60463
1.46872
1.57354
1.33944
1.44191
-1.11663
-1.25906
-0.977215
-1.10788
-0.806566
-0.981713
1.74897
1.71153
1.72482
1.81566
1.7688
1.71504
1.72861
1.80152
1.80727
1.87277
1.90698
1.91902
1.62259
1.71422
1.4899
1.61425
1.80045
1.84296
1.91896
-1.94502
-2.39599
-3.25205
-3.04511
-1.44796
-1.60063
-1.80771
-1.4415
-1.24324
-1.35248
-1.07691
-1.22598
-1.71099
-1.8157
1.94402
1.88195
1.89048
1.89279
1.95071
1.88823
1.94919
2.0168
2.04707
2.06541
2.15062
1.75998
1.83475
2.0248
1.94499
1.67003
1.72013
-2.23308
-2.0366
-2.40532
-1.67709
-1.71999
-1.53248
-1.62922
-1.41381
-1.48015
-1.30502
-1.40436
-1.22122
-1.65863
-1.54012
-1.42466
-1.57398
-1.6327
2.04748
2.09503
2.16959
2.07562
2.25231
2.23758
2.22547
2.27547
2.07333
2.23662
2.10461
2.15149
-1.40304
-1.16054
-1.50468
-0.898748
-0.876791
-0.77893
-1.51112
-1.53446
-0.999161
-1.10657
-1.44949
-1.50575
-1.32507
-1.41254
-1.5676
-1.5333
-1.42882
-0.990783
2.3208
2.33019
2.53351
2.38386
2.43592
2.33175
2.39521
-0.569975
-0.560873
0.0374456
-0.52372
-0.279375
-0.660518
-0.492591
-1.623
-1.56673
-1.40175
-1.3586
-1.37826
-1.71405
-1.67493
-1.32231
2.68584
2.84394
2.5915
2.68528
2.49567
2.62142
0.477171
1.01918
0.165913
0.478256
-0.18074
0.226312
-1.2661
4.94137
5.15562
3.03234
3.15683
2.88178
3.0302
2.74088
2.89094
1.55867
2.01977
1.10363
1.56471
0.550999
1.09676
3.67282
4.25403
3.34337
3.48304
2.55018
2.91321
3.43458
3.71139
4.12244
3.847
4.34559
3.61898
3.33573
3.14598
3.26663
3.00651
3.12819
2.58626
1.93259
2.26865
1.38529
1.85035
3.34563
3.8819
3.52187
3.43531
2.86866
3.16127
3.72104
3.63039
3.53375
3.50778
3.34826
3.39493
3.23245
3.33769
2.45774
2.74738
2.09598
2.4118
3.22658
3.44906
3.43462
3.45798
2.86686
3.12147
3.49146
3.45279
3.44685
3.38803
3.43533
2.55613
2.81841
3.22494
3.55404
3.49908
3.23672
3.30405
3.64044
3.59778
3.20971
3.15307
)
;

boundaryField
{
    movingWall
    {
        type            zeroGradient;
    }
    fixedWalls
    {
        type            zeroGradient;
    }
    frontAndBack
    {
        type            empty;
    }
    defaultFaces
    {
        type            empty;
    }
}


// ************************************************************************* //
