/*--------------------------------*- C++ -*----------------------------------*\
  =========                 |
  \\      /  F ield         | OpenFOAM: The Open Source CFD Toolbox
   \\    /   O peration     | Website:  https://openfoam.org
    \\  /    A nd           | Version:  8
     \\/     M anipulation  |
\*---------------------------------------------------------------------------*/
FoamFile
{
    version     2.0;
    format      ascii;
    class       volVectorField;
    location    "0.001";
    object      U;
}
// * * * * * * * * * * * * * * * * * * * * * * * * * * * * * * * * * * * * * //

dimensions      [0 1 -1 0 0 0 0];

internalField   nonuniform List<vector> 
424
(
(-0.00235508 0.000241848 8.63232e-26)
(-0.0068529 0.000721874 0)
(-0.00731716 0.00181411 3.04007e-23)
(-0.000262255 0.00243738 -2.80877e-25)
(-0.0172512 0.00236886 -3.63519e-23)
(-0.0103928 0.000669292 -4.29257e-23)
(-0.00190631 0.00744871 5.94815e-25)
(-0.000749767 0.00711969 2.35953e-24)
(-0.0244116 0.00150201 -4.54107e-23)
(-0.0121537 0.000326898 3.94027e-23)
(-0.0310657 0.000490484 8.90186e-23)
(-0.0126935 3.13504e-05 0)
(-0.00240654 0.0179365 3.3809e-24)
(-0.000723713 0.0107371 0)
(-0.0277873 0.000553855 4.1508e-23)
(-0.0123628 -4.01385e-05 2.23357e-23)
(-0.0262219 0.000394594 0)
(-0.010655 5.7843e-05 0)
(-0.000430337 0.0127027 0)
(-0.00163504 0.0252706 -4.41975e-23)
(-0.0279885 -9.82526e-05 4.45154e-23)
(-0.011888 -0.000402283 -2.39219e-23)
(-0.0250424 0.000244885 0)
(-0.0102845 6.12358e-05 0)
(-0.0001129 0.01343 1.83429e-23)
(-0.000745133 0.0287377 3.98847e-23)
(-0.000674246 0.031414 -4.05369e-23)
(-5.5442e-05 0.0129737 -4.09056e-23)
(-0.027395 -0.000660573 7.42289e-23)
(-0.0102099 -0.000678343 0)
(-0.00709857 -0.000700475 -1.62312e-22)
(-0.00256157 -0.000258055 0)
(-0.0233867 9.86776e-05 -1.36647e-22)
(-0.00943166 6.09864e-05 1.27779e-22)
(-0.0208311 0.0334862 8.36306e-23)
(0.000262721 0.0150708 0)
(0.000622206 0.0193555 -3.43131e-22)
(0.00342901 0.0439319 3.53488e-22)
(-0.000451607 0.029948 3.94482e-23)
(-0.000437379 0.0264176 5.3198e-24)
(-6.30707e-05 0.0107869 -5.22158e-24)
(-0.0244021 -0.00144337 -1.33469e-22)
(-0.0179577 -0.00227009 1.64554e-22)
(-0.00791573 -0.00201749 0)
(-0.000311249 -0.00267006 -3.98762e-22)
(-0.0224154 -0.000201703 4.61272e-22)
(-0.0086768 -6.1844e-06 0)
(-0.0987427 0.0840919 -2.35608e-22)
(0.759325 0.0271763 -7.34696e-23)
(-0.000791916 0.0337917 -2.29744e-23)
(-0.00373105 0.0424021 0)
(-0.00243992 0.0916232 -5.67545e-24)
(-0.000305855 0.0250599 0)
(-7.16899e-05 0.0103658 0)
(-0.00238211 -0.00802044 7.94768e-23)
(-0.000880332 -0.00781823 3.49492e-22)
(-0.0259283 -0.000158144 0)
(-0.00999457 -2.23098e-06 0)
(0.252498 0.0960437 2.07603e-22)
(0.761093 -0.00456424 -2.04801e-23)
(-0.000353757 0.0226487 -1.30943e-22)
(-0.000108197 0.00926782 1.24121e-22)
(-0.00288371 -0.0187998 0)
(-0.000738285 -0.0116731 0)
(0.271853 0.000802352 2.53122e-22)
(0.76324 -0.0033825 0)
(-0.00052542 0.0192075 -1.10295e-22)
(-0.000112912 0.00769012 1.01499e-22)
(-0.000360716 -0.0135994 7.87399e-23)
(-0.00180899 -0.0262371 -2.439e-23)
(0.75786 -0.00192563 -1.89631e-23)
(0.305823 -0.000947673 -1.8778e-22)
(-0.0019164 0.0165564 0)
(-0.00032085 0.0073732 0)
(2.95148e-05 -0.0143801 6.24595e-23)
(-0.000683316 -0.0297742 2.49598e-23)
(-0.000317331 -0.0293681 -4.90106e-22)
(-6.44022e-06 -0.0118547 0)
(0.758537 -0.00029133 1.79145e-23)
(0.314744 -0.000683899 -7.61007e-23)
(0.77346 -0.0264179 0)
(0.000348422 -0.0158883 -1.19594e-22)
(0.765559 0.00183536 0)
(0.774111 0.00296552 0)
(0.771781 0.00499756 0)
(-0.0188681 -0.0328913 0)
(0.0036573 -0.0451302 -6.62051e-22)
(0.0007454 -0.0198082 8.1647e-22)
(-0.000301205 -0.0310546 5.76405e-23)
(-0.000299987 -0.0255387 0)
(-1.98446e-05 -0.0103153 0)
(0.325178 0.000455791 -2.86982e-23)
(-0.0764669 0.00228611 -6.91164e-23)
(0.278872 -0.0960221 1.34708e-21)
(-0.00071662 -0.0345667 -1.16997e-22)
(0.335358 0.00174377 -1.72861e-22)
(0.335384 0.00132123 3.59699e-22)
(0.301607 -0.000325195 -1.72418e-21)
(-0.10159 -0.0815295 -2.23384e-22)
(-0.00265952 -0.0924416 9.74555e-22)
(-0.00398271 -0.0421096 -7.80579e-22)
(-0.000226537 -0.0246314 -4.02692e-23)
(-4.08566e-05 -0.0101684 3.90531e-23)
(-0.0714606 7.65895e-05 0)
(-0.0317686 0.00042051 -6.52245e-23)
(-0.000258022 -0.0231028 -1.8139e-22)
(-6.5306e-05 -0.00952818 -1.7259e-22)
(-0.0717166 -0.000300381 3.29995e-23)
(-0.0288387 1.70769e-05 0)
(-0.000614419 -0.0207264 1.29378e-22)
(-0.000107028 -0.00848505 -1.23335e-22)
(-0.0674064 -0.000422946 -3.48608e-22)
(-0.0291837 -8.69112e-05 -3.12462e-23)
(-0.00237797 -0.0176449 0)
(-0.000386629 -0.00814803 0)
(-0.0626367 -0.000171002 1.81533e-22)
(-0.0270884 -0.000195696 0)
(-0.0662958 -0.00189411 0)
(-0.0243685 -8.78593e-05 1.63549e-22)
(-0.0263886 -0.00035865 0)
(-0.0225344 0.00417693 3.33112e-24)
(-0.00925373 0.00331875 0)
(-0.0178119 0.00922586 0)
(-0.00342242 0.00924104 -2.77569e-25)
(-0.0336535 0.0283573 7.49711e-24)
(-0.0397353 0.0198907 4.64147e-22)
(-0.0256145 0.0395549 6.74941e-23)
(-0.032098 0.0349379 -3.06844e-24)
(-0.0437153 0.0181033 -7.8122e-22)
(-0.0457171 0.0111208 -2.54936e-23)
(-0.0450536 0.00906142 -7.13015e-22)
(-0.0294132 0.00748424 -2.35955e-22)
(-0.0307883 0.0108261 -6.44682e-22)
(-0.036727 0.012166 8.4639e-22)
(-0.0438575 0.00759385 -6.57905e-22)
(-0.0409606 0.0097388 1.20746e-22)
(-0.0315899 0.00148008 2.22152e-22)
(-0.042431 0.00206166 1.36992e-21)
(-0.0399855 0.00168885 2.57398e-22)
(-0.0407865 0.000552038 3.76672e-22)
(-0.00947116 0.0183669 2.12534e-25)
(-0.0226562 0.0258398 0)
(-0.0155858 0.0140317 -1.75924e-25)
(-0.0210863 0.0197576 0)
(-0.0182615 0.031236 1.15043e-22)
(-0.0207379 0.0389703 -2.96206e-22)
(-0.00365699 0.023505 -4.83327e-24)
(-0.0141785 0.0439431 3.01065e-22)
(-0.0220916 0.043187 -8.96827e-23)
(-0.0135441 0.0468767 3.48754e-22)
(-0.021306 0.0409313 -2.37828e-22)
(-0.037164 0.0347293 -8.32853e-24)
(-0.0420555 0.0241356 0)
(-0.0381599 0.0127076 1.31673e-22)
(-0.0103029 0.000625286 -2.7379e-22)
(-0.0275352 0.0044206 3.15883e-22)
(-0.0360303 0.00404298 0)
(-0.0368107 0.00492003 0)
(-0.0442433 0.0012043 -9.53242e-22)
(-0.0367818 0.000217221 -1.91528e-21)
(-0.0421112 0.00349944 3.41255e-21)
(-0.0365098 0.000830734 8.41627e-22)
(-0.0401185 -0.000481011 9.29109e-22)
(-0.00813211 0.0295966 -1.06048e-22)
(-0.0108765 0.0318058 1.03303e-22)
(-0.00990436 0.04245 -3.3282e-22)
(-0.00174676 0.032621 1.24272e-21)
(-0.00805238 0.0427854 1.68901e-22)
(-0.00735845 0.0463865 7.99064e-23)
(-0.00485867 0.0442747 -3.87299e-22)
(-0.0116542 0.0367238 4.03383e-22)
(-0.00655862 0.0446386 -1.35805e-21)
(-0.00451314 0.0277281 0)
(-0.00063673 0.0104621 0)
(-0.0380152 0.000162615 1.08349e-21)
(-0.0390729 0.00120008 -3.20679e-21)
(-0.0373159 0.000413851 -1.1779e-21)
(-0.0416793 0.000592151 3.7301e-21)
(-0.0351853 9.43757e-05 -1.41949e-21)
(-0.0395502 -0.000156841 1.84817e-21)
(-0.00331761 0.0373717 -1.11145e-21)
(-0.00414143 0.0380491 7.26818e-22)
(-7.59414e-05 0.03713 0)
(-0.00148078 0.0424146 0)
(-0.00116769 0.0442065 -1.45228e-21)
(-0.00134091 0.0390564 8.99318e-22)
(-0.000312758 0.0407473 0)
(-0.0386588 -0.000245933 1.11957e-21)
(-0.0390948 -0.000426753 3.03249e-22)
(-0.0369723 0.000484643 1.61803e-21)
(-0.0430845 -0.00236514 -2.50672e-21)
(-0.0433741 -0.00139304 -2.67124e-21)
(-0.0341928 -0.000619109 -2.93488e-21)
(-0.0404645 -0.000551644 1.28923e-21)
(-0.000348047 0.0393395 1.07322e-21)
(-0.000233126 0.0379879 -1.13658e-21)
(-0.00316919 0.0418601 3.50195e-21)
(-0.0021716 0.0400488 -2.70882e-21)
(-0.000942199 0.0368161 0)
(0.000363713 0.0395004 0)
(-0.0378079 -0.00299746 -1.86149e-21)
(-0.0390581 -0.00460302 0)
(-0.0421527 -0.00860536 2.31603e-21)
(-0.0320269 -0.00172784 1.32692e-21)
(-0.038109 -0.00849026 -2.57752e-21)
(-0.0438772 -0.00883876 -4.28291e-21)
(-0.0436236 -0.0022149 2.59799e-21)
(-0.045371 -0.00675217 2.36414e-21)
(-0.0351425 -0.00111399 -3.91364e-22)
(-0.0404968 -0.000322655 0)
(-0.00153201 0.0390967 -6.06978e-22)
(-0.00394224 0.0424792 0)
(-0.00291401 0.0412083 0)
(-0.00292494 0.0379382 4.64319e-22)
(-0.000185835 0.0346314 0)
(-0.000586093 0.0385176 0)
(-0.0436654 -0.0203719 0)
(-0.0418063 -0.0166406 -2.83269e-21)
(-0.0385273 -0.0158675 3.82623e-21)
(-0.0408829 -0.0268888 0)
(-0.0229316 -0.00376816 0)
(-0.0299312 -0.00723427 -1.52961e-21)
(-0.0306493 -0.00909293 -2.92796e-21)
(-0.0294385 -0.0160647 3.58152e-21)
(-0.0336607 -0.0207787 -1.92996e-22)
(-0.0176815 -0.00893927 -8.95165e-22)
(-0.00966819 -0.00322165 0)
(-0.00393054 -0.0094193 2.8484e-21)
(-0.0460957 -0.0104152 1.00072e-21)
(-0.046482 -0.018235 -2.47525e-21)
(-0.0358363 -0.000585009 -1.80253e-21)
(-0.0433978 -0.00913513 2.57542e-21)
(-0.042703 -0.0250281 1.15155e-21)
(-0.0408065 -0.0296841 0)
(-0.036139 -0.0356484 2.06336e-21)
(-0.0180706 0.102348 5.0081e-24)
(-0.096429 0.134935 -4.00841e-21)
(-0.130529 0.111387 4.26818e-21)
(-0.0141819 0.127352 -3.69161e-21)
(-0.0116069 0.0458598 2.05668e-21)
(-0.0121099 0.0521227 -2.49039e-21)
(-0.0307218 0.0697228 -1.32144e-21)
(-0.0113923 0.0400617 -4.35112e-21)
(-0.00194691 0.0413774 -1.13099e-21)
(-0.00852796 0.0418229 4.56647e-21)
(-5.50825e-05 0.0319184 0)
(-0.00197487 0.0366059 4.10574e-22)
(-0.0390901 0.0540931 6.17896e-21)
(-0.0651773 0.0624481 -1.99976e-21)
(-0.0325391 -0.0360408 5.43269e-21)
(-0.0305743 -0.026837 3.21583e-21)
(-0.0337923 -0.0297101 -4.32457e-21)
(-0.0163219 -0.0126947 6.79471e-22)
(-0.0223433 -0.0274725 0)
(-0.0216462 -0.0174835 3.21966e-22)
(-0.00959762 -0.0181117 -3.98121e-21)
(-0.0266394 -0.039874 -7.65763e-21)
(-0.00451382 -0.0235118 0)
(-0.0228224 -0.043409 2.693e-21)
(-0.0156489 -0.0460759 0)
(-0.0340126 -0.0105534 4.2724e-21)
(-0.0400272 -0.0230593 0)
(-0.0221918 -0.0414807 -6.19499e-21)
(-0.0343204 -0.0372486 1.50109e-21)
(-0.00819953 -0.000418611 1.92484e-21)
(-0.0229289 -0.00330912 -7.47651e-21)
(-0.105595 0.0890061 -7.85236e-22)
(-0.108509 0.0730299 0)
(-0.118952 0.0875729 2.82551e-21)
(-0.116377 0.0295213 -1.79287e-21)
(-0.0118707 0.0181272 1.44977e-21)
(-0.0167781 0.0418995 2.82043e-21)
(-0.0326106 0.0442248 -3.2937e-21)
(-0.00907601 0.0334118 -2.31655e-21)
(-0.0149287 0.0320939 3.98084e-21)
(-0.00131272 0.0283486 1.85405e-21)
(-0.00663317 0.0295652 -1.21774e-21)
(-0.110859 0.00561662 0)
(-0.0711546 0.0320344 -2.70549e-21)
(-0.0965544 0.0223653 1.91403e-22)
(-0.0991514 0.00942836 4.22952e-21)
(-0.0378268 0.0292811 -1.68413e-21)
(-0.0571851 0.0260773 1.6411e-21)
(-0.0143342 -0.0317823 2.97398e-22)
(-0.0157407 -0.0377735 6.6512e-22)
(-0.0137079 -0.042212 0)
(-0.00808223 -0.0297694 -3.75508e-22)
(-0.00143418 -0.0333162 2.49728e-23)
(-0.0107668 -0.0412313 -4.67284e-21)
(-0.00937831 -0.0457666 2.31953e-21)
(-0.00647114 -0.0444252 -2.60218e-21)
(-0.0118543 -0.0374131 4.25131e-21)
(-0.00780574 -0.0444244 -3.35715e-21)
(-0.00401268 -0.0258252 0)
(-0.000591231 -0.00950384 0)
(-0.107741 0.0233954 -7.50447e-22)
(-0.121836 0.0146918 2.69563e-21)
(-0.0878971 0.0213549 -1.10314e-21)
(0.0374972 0.0101663 2.46826e-21)
(-0.125149 0.00203657 0)
(-0.121826 0.00605019 0)
(-0.0160292 0.0223005 -2.87791e-21)
(-0.0283517 0.0203498 0)
(-0.112205 -0.00299529 0)
(-0.11109 -0.00104051 0)
(-0.00517878 0.0214261 0)
(-0.00977211 0.0185701 -1.18367e-21)
(-0.0865495 -0.00756594 0)
(-0.0829824 0.000982837 -4.22455e-21)
(-0.0366983 0.00347296 0)
(-0.0586434 0.00733941 0)
(-0.0683541 -0.000836594 3.59147e-21)
(-0.102777 -0.00693574 7.86064e-22)
(-0.00533121 -0.0371298 3.2604e-21)
(-0.00445902 -0.036302 0)
(-7.67886e-05 -0.0378945 -5.25478e-23)
(-0.00161897 -0.0426409 0)
(-0.000928519 -0.044474 0)
(-0.00123359 -0.0381187 -4.42601e-21)
(-0.000451617 -0.0405997 4.02925e-21)
(-0.106931 0.00448128 0)
(-0.0815374 0.0053373 -2.04595e-21)
(0.0300715 0.00521785 0)
(-0.115889 0.00791425 -6.77612e-22)
(-0.128554 0.00818842 1.28651e-22)
(-0.0976567 0.00399569 -3.19502e-22)
(-0.109907 0.0074878 2.28365e-22)
(-0.00875707 -0.00314721 6.37555e-21)
(-0.0294545 -0.00969633 -1.15609e-21)
(-0.0558322 -0.0116297 -2.72194e-21)
(-0.0633638 -0.0120203 0)
(-0.0653125 -0.0116846 0)
(-0.000290734 0.000783588 1.94676e-21)
(-0.00246088 6.41778e-05 -7.3847e-21)
(-0.0489959 -0.00394028 0)
(-0.000604498 -0.0380126 -7.07478e-22)
(-0.00118312 -0.0387185 5.19761e-23)
(-0.00336062 -0.0419976 -5.98421e-21)
(-0.00149191 -0.0389431 5.57069e-21)
(-0.000973564 -0.035853 0)
(0.00044479 -0.039599 -6.90983e-22)
(-0.088017 0.00246186 0)
(0.0237259 0.00154309 0)
(-0.125122 -0.00376082 6.35692e-22)
(-0.115806 -0.00102128 -5.93739e-22)
(-0.102956 0.000733964 4.45938e-22)
(-0.116676 0.00383563 -7.71456e-22)
(-0.0190893 -0.000423024 0)
(-0.0175758 -0.123265 -7.27446e-21)
(-0.13849 -0.10571 1.27538e-20)
(-0.00232342 -0.039986 2.19272e-22)
(-0.00365943 -0.0417173 0)
(-0.00134692 -0.0413416 5.18991e-21)
(-0.00251137 -0.0384987 -3.78165e-21)
(-0.000195489 -0.0338813 0)
(-0.00105733 -0.0390935 -1.35214e-21)
(-0.088534 -0.00230273 -5.25565e-23)
(0.0238148 -0.00661809 -2.86443e-21)
(-0.12471 -0.00343137 -2.93872e-21)
(-0.113322 -0.00237535 -8.12255e-22)
(-0.102561 0.000401723 7.36298e-22)
(-0.117091 -9.67827e-05 0)
(-0.00705099 -0.0167128 -9.99616e-21)
(-0.119127 -0.0713139 -8.61928e-21)
(-0.00994622 -0.0451004 0)
(-0.0115707 -0.0505469 0)
(-0.0818783 -0.00802884 -4.25714e-21)
(0.0423466 -0.0102793 3.44028e-21)
(-0.0861782 -0.0191967 1.66015e-20)
(-0.032736 -0.0641699 0)
(-0.113996 -0.0818407 1.24191e-20)
(-0.0206501 -0.102087 2.18469e-21)
(-0.108046 -0.133561 -3.55431e-21)
(-0.0401121 -0.0470066 -1.06427e-22)
(-0.0100841 -0.0398119 -5.0706e-21)
(-0.00201538 -0.0406716 2.15951e-21)
(-0.00785765 -0.0411577 8.02595e-21)
(-0.000414535 -0.0333589 -4.77177e-21)
(-0.00207154 -0.0369288 3.10086e-21)
(-0.108226 -0.00452995 3.49802e-21)
(-0.128291 0.00311276 5.05535e-21)
(-0.130367 -0.00718072 -4.8059e-21)
(-0.0979059 0.00144473 3.48571e-22)
(-0.117281 -0.00128532 0)
(-0.11401 -0.024849 -5.35042e-21)
(-0.110041 -0.059538 -3.44676e-21)
(-0.0293325 -0.0416451 -8.56785e-21)
(-0.0166129 -0.0413497 9.81186e-22)
(-0.123928 -0.00327478 0)
(-0.118795 -0.0160922 -1.37235e-21)
(-0.075659 -0.0566603 -9.02798e-21)
(-0.0469938 -0.046056 1.18525e-20)
(-0.0443922 -0.0274663 8.44461e-21)
(-0.0331986 -0.0283845 0)
(-0.00847113 -0.0321785 0)
(-0.014083 -0.0318198 -3.28607e-21)
(-0.00175271 -0.0297325 0)
(-0.00668084 -0.0300078 0)
(-0.118943 -0.00599415 3.84307e-21)
(-0.119557 -0.0033399 -7.31158e-21)
(-0.0952671 6.56386e-05 -3.50891e-22)
(-0.108825 -0.00691492 -2.18055e-21)
(-0.102715 -0.00531834 6.91562e-21)
(-0.0889263 -0.0174389 -5.86711e-21)
(-0.0160771 -0.022739 1.94726e-21)
(-0.0258783 -0.0209238 4.64926e-21)
(-0.112082 0.00320266 5.96232e-21)
(-0.10219 0.00377851 -2.32607e-22)
(-0.0325754 -0.00438954 -1.00869e-20)
(-0.048679 -0.00936323 5.04792e-22)
(-0.0672396 -0.00843465 1.83195e-21)
(-0.00518919 -0.0211803 0)
(-0.0102055 -0.0184062 -3.55308e-21)
(-0.0916675 -0.00425736 -2.91121e-21)
(-0.102968 0.00434495 2.20889e-21)
(-0.0626717 0.0118555 1.82536e-21)
(-0.00922217 0.00330316 0)
(-0.0275786 0.00993091 4.41016e-21)
(-0.0714851 0.0132329 2.08609e-22)
(-0.0638919 0.0110802 0)
(-0.000400524 -0.000864947 0)
(-0.00309506 8.62489e-05 0)
(-0.0440821 0.00415588 -4.59118e-21)
(-0.0164638 0.000592071 3.61348e-21)
)
;

boundaryField
{
    movingWall
    {
        type            fixedValue;
        value           uniform (1 0 0);
    }
    fixedWalls
    {
        type            noSlip;
    }
    frontAndBack
    {
        type            empty;
    }
    defaultFaces
    {
        type            empty;
    }
}


// ************************************************************************* //
