/*--------------------------------*- C++ -*----------------------------------*\
  =========                 |
  \\      /  F ield         | OpenFOAM: The Open Source CFD Toolbox
   \\    /   O peration     | Website:  https://openfoam.org
    \\  /    A nd           | Version:  8
     \\/     M anipulation  |
\*---------------------------------------------------------------------------*/
FoamFile
{
    version     2.0;
    format      ascii;
    class       volScalarField;
    location    "0.036";
    object      p;
}
// * * * * * * * * * * * * * * * * * * * * * * * * * * * * * * * * * * * * * //

dimensions      [0 2 -2 0 0 0 0];

internalField   nonuniform List<scalar> 
424
(
1.4381e-06
0.0551302
0.013584
0.117611
0.0957774
0.247642
0.101922
0.0543668
0.277512
0.495424
0.478278
0.491119
0.0108879
-0.150905
0.507991
0.749681
0.508064
0.513712
-0.422121
-0.184438
0.749105
1.00236
0.672698
0.673412
-0.674322
-0.43674
-0.380512
-0.395872
0.988295
1.26953
1.47536
1.53791
0.850126
0.848209
-3.52161
-0.889143
-1.1116
-1.38878
-0.677032
-0.412363
-0.417497
1.23542
1.42912
1.52513
1.41543
1.0069
1.00454
-2.88781
-2.65146
-0.887429
-1.12252
-1.18053
-0.576991
-0.578206
1.43286
1.47079
1.02589
1.02211
-2.26953
-1.12706
-0.759747
-0.757442
1.51808
1.67544
-1.05223
-0.621869
-0.946584
-0.945543
1.92528
1.7087
-0.0208936
-0.599242
-1.01304
-1.03725
2.18155
1.93767
1.89765
1.91082
0.728067
0.00828329
4.37576
2.40394
1.4736
2.10449
2.68246
5.25454
2.88511
2.61723
2.17933
1.94276
1.94848
0.733464
-0.386506
3.94766
2.39728
1.45914
2.0822
2.56924
4.53603
2.64101
2.62714
2.10489
2.10562
-0.162815
-0.4123
2.29267
2.29023
0.392968
-0.163185
2.48807
2.49277
0.978981
0.392401
2.57553
2.60634
1.56059
0.977947
1.82177
1.55572
1.83988
0.130875
0.0404921
0.0478021
0.0784453
0.094355
0.165799
-0.0273809
0.0102967
0.224264
0.317772
0.333015
0.151117
0.17753
0.21896
0.335883
0.303582
0.294817
0.445095
0.461016
0.446162
0.0650406
-0.000512715
0.0701275
0.0358654
-0.0165209
-0.0626517
-0.0404924
-0.160835
-0.0822209
-0.188994
0.000701253
0.0449428
0.0692247
0.11409
0.305474
0.169857
0.363291
0.353317
0.490394
0.511235
0.583757
0.513173
0.598906
-0.0313097
-0.0334845
-0.18598
-0.203004
-0.232052
-0.267215
-0.271633
-0.0486592
-0.281517
-0.0948775
-0.232969
0.642941
0.638919
0.750921
0.783246
0.67901
0.784341
-0.293849
-0.281799
-0.439264
-0.338935
-0.401421
-0.380911
-0.348947
0.885686
0.885106
0.98577
0.958368
1.05259
0.853735
0.943826
-0.546895
-0.67244
-0.503727
-0.555003
-0.419913
-0.515278
1.13579
1.15056
1.20719
1.21772
1.27448
1.22127
1.10962
1.18327
1.00488
1.08288
-0.788996
-0.883786
-0.696447
-0.777111
-0.583141
-0.700659
1.3254
1.30429
1.31725
1.35471
1.40167
1.38571
1.38211
1.386
1.39066
1.49741
1.50006
1.44975
1.18492
1.27101
1.03895
1.18568
1.35387
1.38446
1.45398
-1.26545
-1.65515
-2.50207
-2.08848
-1.01842
-1.11736
-1.23143
-1.01893
-0.868444
-0.935806
-0.764439
-0.870283
-1.14728
-1.25512
1.50165
1.4475
1.4583
1.45269
1.51775
1.45777
1.46855
1.51767
1.5626
1.58827
1.68678
1.3404
1.4357
1.51186
1.4951
1.13903
1.26344
-1.48784
-1.41895
-1.63548
-1.23521
-1.08064
-1.10424
-1.14925
-1.00654
-1.07085
-0.942876
-1.01955
-0.854858
-1.19512
-1.10111
-1.0743
-1.11804
-1.22104
1.56619
1.62288
1.69879
1.55633
1.73533
1.73035
1.76204
1.78512
1.56436
1.77337
1.61188
1.7376
-0.818522
-0.723444
-0.941637
-0.594587
-0.698834
-0.564784
-1.09638
-1.10568
-0.746666
-0.756879
-1.02363
-1.12705
-1.03854
-1.07754
-1.24137
-1.17217
-1.05122
-0.753387
1.77584
1.78984
1.94072
1.86853
1.91308
1.88553
1.87255
-0.395725
-0.399465
0.0269671
-0.357142
-0.056942
-0.411555
-0.344977
-1.40091
-1.31486
-1.08226
-1.2145
-1.15667
-1.51091
-1.48596
-1.19814
2.06686
2.18174
2.01546
2.06479
1.94657
2.02978
0.311217
0.73793
0.0737381
0.327335
-0.160626
0.14513
-1.13399
3.71416
4.06631
2.31318
2.39261
2.18865
2.3107
2.11124
2.20097
1.1464
1.45197
0.805806
1.13694
0.417172
0.792214
2.5782
3.1338
2.53366
2.62138
1.88871
2.0755
2.37377
2.73841
3.01069
2.74776
3.21717
2.64992
2.52429
2.4008
2.4726
2.29169
2.39312
1.90366
1.44038
1.52885
0.981276
1.35535
2.28329
2.92116
2.659
2.62045
2.17897
2.20474
2.7978
2.67972
2.7012
2.67878
2.58136
2.59598
2.479
2.58921
1.7914
2.03767
1.56936
1.77189
2.39691
2.65476
2.62643
2.64328
2.15808
2.35958
2.76868
2.63444
2.67429
2.59443
2.66915
1.84461
2.12266
2.62678
2.97714
2.88816
2.53044
2.56598
3.09558
3.05843
2.63748
2.55793
)
;

boundaryField
{
    movingWall
    {
        type            zeroGradient;
    }
    fixedWalls
    {
        type            zeroGradient;
    }
    frontAndBack
    {
        type            empty;
    }
    defaultFaces
    {
        type            empty;
    }
}


// ************************************************************************* //
