/*--------------------------------*- C++ -*----------------------------------*\
  =========                 |
  \\      /  F ield         | OpenFOAM: The Open Source CFD Toolbox
   \\    /   O peration     | Website:  https://openfoam.org
    \\  /    A nd           | Version:  8
     \\/     M anipulation  |
\*---------------------------------------------------------------------------*/
FoamFile
{
    version     2.0;
    format      ascii;
    class       surfaceScalarField;
    location    "0.036";
    object      phi;
}
// * * * * * * * * * * * * * * * * * * * * * * * * * * * * * * * * * * * * * //

dimensions      [0 3 -1 0 0 0 0];

internalField   nonuniform List<scalar> 
1107
(
0.000315987
-0.000643383
0.000633493
-0.000306098
0.000616968
-0.000300981
-2.96819e-05
0.00064665
0.000304968
0.000538558
-0.000106656
-0.00073687
-0.000968698
0.000630284
-9.76286e-05
0.00070144
0.000286064
-5.36039e-05
-1.49169e-05
-3.72597e-05
0.00068391
-3.30655e-05
1.43519e-05
-8.79428e-05
0.000180751
-0.000148816
-6.50008e-05
0.000300278
-0.000856397
-0.00126763
0.000599214
-0.000207386
0.000740041
0.000760893
-9.67133e-05
4.16875e-05
0.000814762
-9.55558e-05
3.58183e-06
-4.28338e-05
-1.13351e-05
0.000725597
0.000852829
2.98971e-05
-6.79639e-05
6.44786e-05
-0.000126762
-8.65322e-05
2.5151e-05
-4.86151e-05
0.000227355
-0.00014071
-0.000213408
0.000277836
-0.000115481
0.000296552
-0.000875114
-0.0015105
0.000539413
-0.000366318
0.000758147
0.000828599
-0.000185271
0.000898901
-0.000165857
5.21604e-06
-2.28989e-05
-6.11901e-06
-2.22031e-05
0.000864739
1.02923e-05
0.000755494
0.000945655
-0.000114719
0.000962808
-3.93556e-05
0.000951151
-2.39204e-05
3.55768e-05
3.53917e-05
-7.27286e-05
-4.91953e-05
1.36173e-05
-2.68407e-05
-8.23731e-05
-0.000131065
0.000322082
-0.000215075
-0.000320415
0.00039713
-0.000190529
0.000306661
-0.000784645
0.000459737
-0.00166357
-0.000570004
0.000743098
0.000880547
-0.000307672
0.000967839
-0.000253149
2.99698e-06
-1.22785e-05
-3.12203e-06
8.80335e-05
0.00091627
-5.31526e-05
0.000853143
-1.23237e-05
0.000765786
0.00102517
-0.000172051
0.00104927
-6.3459e-05
0.00103837
4.6485e-05
0.000998283
0.000128117
-0.00011823
0.00093197
0.000184543
5.74253e-05
-0.00010415
-3.56488e-05
2.75929e-05
-1.93628e-05
1.041e-05
-9.65785e-06
-0.000129706
-0.000216434
-6.19005e-05
-0.000171955
0.000690788
-0.000801054
0.000901751
-0.000466324
0.00100988
-0.000361282
2.20746e-06
-4.07596e-06
-9.14567e-07
0.000865193
-6.71524e-05
0.00082365
-2.36594e-05
0.000753463
0.000822327
-0.000147103
0.000256746
0.00107803
-0.000240198
0.00110871
-9.41355e-05
0.00110027
5.49189e-05
0.00105636
0.000172026
0.000973048
0.00026786
4.56348e-05
-3.06103e-05
-7.6925e-05
2.44352e-05
-1.44492e-05
1.14665e-05
-6.39407e-06
4.27937e-06
-2.47075e-06
0.000876334
-0.00065187
0.00100366
-0.000488611
8.82715e-07
-6.79305e-07
-3.1853e-08
0.000333671
0.000669738
-0.000181082
0.000790334
-7.22439e-05
0.000785408
-2.89114e-05
0.000729803
0.000826301
0.000403493
0.000622158
0.000537813
0.000388055
-0.00129474
0.00152885
0.00108205
-0.000318585
0.00112128
-0.000133366
0.0011199
5.63013e-05
0.00107476
0.000217159
0.000972889
0.000369735
-3.58505e-05
-5.57637e-05
6.10039e-05
-1.92631e-05
-3.10367e-05
-9.09244e-06
-1.65647e-05
-3.38082e-06
-8.18236e-06
-6.70943e-07
-3.38918e-06
-7.02798e-07
0.000988575
0.000344904
-0.000945424
0.000371403
-0.000996408
0.000687913
-7.86619e-05
0.000738983
-2.58182e-05
0.000700892
0.000791919
0.000584463
0.000546637
0.000783095
0.000411383
0.0016641
0.000482465
0.000917493
-5.77376e-05
-9.52614e-05
9.72353e-05
-3.12612e-05
-5.7513e-05
-1.47568e-05
-3.30691e-05
-5.46354e-06
-1.74757e-05
-1.09401e-06
-7.75871e-06
-1.79681e-06
0.000102366
0.000299745
-5.72063e-05
0.000227495
-0.000801516
0.000357766
-0.000666261
0.000680822
-2.05009e-05
0.000675074
0.000414404
0.000170427
-4.43594e-05
-0.000124969
7.40666e-05
-2.43903e-05
-7.74821e-05
-1.17391e-05
-4.57203e-05
-4.46695e-06
-2.47478e-05
-9.68871e-07
-1.12568e-05
-2.76568e-06
0.000247153
0.000201749
-0.000149157
0.000200799
-3.05108e-05
0.000136097
-0.000579847
0.000342983
-0.000328422
0.000654573
0.000295795
0.000365762
-1.45019e-05
-0.000133652
2.31854e-05
-8.22738e-06
-8.37566e-05
-4.07568e-06
-4.9872e-05
-1.63693e-06
-2.71866e-05
-4.00257e-07
-1.24935e-05
-3.16594e-06
0.000150073
0.000135264
-8.35882e-05
0.000128369
-7.67263e-05
0.000120703
-1.5117e-05
6.99513e-05
-0.000306815
0.000326151
0.000200005
0.000245862
1.41491e-05
-0.0001219
-2.59012e-05
7.19678e-06
-7.68043e-05
3.2102e-06
-4.58855e-05
1.13372e-06
-2.51101e-05
1.83068e-07
-1.15428e-05
-2.98288e-06
0.000129258
7.80023e-05
-7.19963e-05
8.52496e-05
-4.04692e-05
7.38013e-05
-2.98245e-05
5.92234e-05
-4.38904e-06
1.93356e-05
0.000118564
0.000210699
-8.82451e-05
5.92893e-05
0.00014752
1.6331e-05
-3.58934e-05
-0.000102338
7.64198e-06
-6.81153e-05
3.27083e-06
-4.15143e-05
1.18023e-06
-2.30195e-05
2.27423e-07
-1.059e-05
-2.75546e-06
3.80715e-05
-4.83144e-05
4.80868e-05
-3.48335e-05
4.86506e-05
-1.53185e-05
3.5248e-05
-5.84916e-06
1.49466e-05
-5.14309e-05
2.39096e-05
8.68106e-05
-3.15774e-05
5.71305e-05
-6.70675e-05
-1.24402e-05
-4.21567e-05
-2.78984e-06
-2.02404e-05
-5.54527e-06
1.44871e-05
-2.78464e-05
2.28812e-05
-2.31088e-05
2.69464e-05
-1.31294e-05
2.30144e-05
-3.08491e-06
9.09742e-06
5.20726e-06
-2.53423e-05
4.40446e-05
-2.13475e-06
6.87978e-06
7.17709e-06
-1.19221e-05
-1.28498e-05
5.54643e-05
-6.28549e-05
-1.83951e-05
-1.54993e-06
-8.12735e-06
1.48845e-05
2.53659e-06
-1.33918e-05
8.21504e-06
-1.31802e-05
1.25216e-05
-8.68397e-06
1.25885e-05
-2.70348e-06
6.01251e-06
1.37659e-06
4.21313e-06
-7.72446e-06
-5.52024e-07
3.37258e-06
4.05923e-06
-1.87533e-06
8.33481e-06
-1.65746e-05
1.01151e-05
-2.80028e-06
-4.92042e-07
1.7424e-06
-1.53481e-06
-4.05594e-06
1.03564e-06
-6.21238e-06
4.25066e-06
-4.90932e-06
5.73456e-06
-1.82999e-06
3.30903e-06
3.24255e-06
1.62268e-06
-3.48864e-06
1.54286e-06
2.11825e-06
7.77278e-08
1.41952e-06
-7.5016e-07
2.99544e-06
6.08951e-06
-2.64208e-06
4.74087e-06
-2.35412e-05
2.14424e-05
-1.99348e-06
1.96452e-06
-2.77133e-06
-2.04129e-06
1.44665e-08
-1.25173e-06
-1.76857e-06
3.19611e-07
-2.28133e-06
1.85065e-06
-1.02542e-06
1.47904e-06
3.57975e-06
-3.14296e-07
-2.29123e-08
2.48456e-06
6.8097e-07
1.25119e-06
9.44791e-07
2.17271e-07
4.52085e-07
-2.01719e-07
5.55089e-07
-5.73452e-07
5.3143e-06
-1.12307e-06
1.60552e-06
-2.47593e-06
-1.29829e-06
1.22155e-06
-1.36162e-06
1.24365e-07
-8.45048e-07
-6.03906e-07
4.19865e-08
-4.7266e-07
4.53624e-07
2.52798e-06
-2.12656e-06
3.17834e-06
2.48535e-06
-3.15078e-07
1.68966e-06
2.42502e-07
8.32193e-07
3.29875e-07
1.69919e-07
8.04486e-08
-1.83555e-08
-1.55401e-06
-8.74341e-07
1.30529e-06
-6.16165e-07
9.23427e-07
-7.82313e-07
6.42243e-07
-8.07276e-07
8.65958e-08
-4.51128e-07
-1.10791e-07
-1.90348e-08
1.40837e-06
-1.90481e-06
3.02442e-06
1.61937e-06
-1.26058e-06
1.5807e-06
-2.06115e-07
1.01261e-06
6.20868e-08
4.37658e-07
6.21407e-08
6.20949e-08
-2.2681e-06
-1.28043e-06
1.99453e-06
-9.68677e-07
-5.21801e-07
-3.161e-07
4.57222e-07
-4.24766e-07
2.59735e-07
-3.93058e-07
2.85278e-08
-1.29825e-07
2.0072e-06
1.18375e-06
-1.78258e-06
7.87981e-07
-1.07343e-06
9.57353e-07
-6.37243e-07
9.02099e-07
-9.56038e-08
4.94911e-07
4.83661e-09
1.24236e-07
-2.69753e-06
-6.97353e-07
1.12679e-06
-1.50561e-06
-7.43465e-07
-5.67029e-07
-2.70866e-07
-1.44156e-07
1.76617e-07
-1.91067e-07
5.7747e-08
-1.01295e-07
-2.61766e-06
1.56804e-07
-2.36667e-07
1.18072e-06
-1.79118e-06
1.26384e-06
7.07886e-07
4.09213e-07
-5.25287e-07
5.1334e-07
-2.48484e-07
4.24512e-07
-2.52037e-08
1.29073e-07
-1.80674e-06
-3.96207e-07
-9.36986e-07
-3.73507e-07
-3.03518e-07
-1.11499e-07
-5.10433e-08
3.65961e-08
-4.35458e-08
-1.7461e-06
9.61833e-08
6.98458e-07
7.49117e-07
3.67981e-07
1.89534e-07
-2.01481e-07
2.28818e-07
-5.2789e-08
1.03869e-07
-1.13605e-06
-1.97143e-07
-5.29825e-07
-1.47198e-07
-1.36645e-07
-2.58919e-08
-6.94986e-09
-1.09141e-06
5.15437e-08
3.5617e-07
4.06016e-07
1.51498e-07
6.86257e-08
-4.1289e-08
5.108e-08
-6.48606e-07
-7.83597e-08
-2.50763e-07
-3.30781e-08
-3.28406e-08
-6.19733e-07
2.26719e-08
1.42453e-07
1.84818e-07
3.53065e-08
9.7909e-09
-3.10771e-07
-1.83512e-08
-6.59175e-08
-2.94501e-07
6.40349e-09
3.27688e-08
4.5097e-08
-8.42689e-08
-7.78658e-08
0.000597046
-0.00138169
-0.00106653
0.000323018
-0.000539452
0.00086022
-0.000537202
0.000539805
0.00130396
-0.000764157
0.00111343
-0.000268257
0.00156943
-0.00183769
0.000502909
-0.000298145
-0.0013937
0.000629543
0.000139264
-0.000311219
-0.000400188
4.4422e-05
-0.000121347
-0.000266797
0.000330916
-0.000731104
0.00117569
-0.000844778
0.000638492
-0.000755209
0.00207223
-0.00144268
0.000234535
0.00130797
-0.00107344
0.00100983
0.000357956
0.00101684
-0.00177205
-0.000425839
-6.0343e-05
0.000230022
-0.000290365
-3.67746e-05
-0.000767879
-6.78924e-05
-0.000699986
0.00137018
-0.00143807
0.000525405
-0.00124665
0.00142369
-0.00184953
0.000350252
0.000884376
-0.000534124
-0.00124233
0.000753721
-0.00137391
0.00105532
-0.000620187
0.000982997
-0.00222965
-0.00086653
0.000859705
0.000804396
0.0017772
-0.00041082
0.000995283
-0.00148574
0.00135237
-0.000430415
-0.00115659
0.000745771
-0.000786855
-0.00131701
0.00137331
3.53634e-05
-0.00128647
0.000499615
-0.00106931
0.000303999
-0.00019313
0.00013212
-0.000325251
-0.000567866
0.00027902
-0.000846886
-0.00115905
0.000197622
-0.00135668
-0.00203202
0.00113402
-0.00200055
-0.000599891
-2.02958e-05
-0.000656429
0.000226014
-0.000676725
-3.32832e-05
-0.00199874
-0.00203383
-0.000897195
0.00170159
-0.000114101
0.000881182
0.000284593
0.00149261
0.00198618
0.00166303
-1.8909e-05
0.000900091
-0.00100455
0.000985646
-0.000258784
-0.00056976
0.000605124
-0.000343746
-0.000957107
0.000698324
-0.000457492
-0.000785049
0.000327557
-0.00048105
0.000124074
-0.000251184
8.0283e-05
-0.000331467
-0.000766603
3.30707e-05
-0.000799674
-0.00132361
-0.000353489
-0.000970117
-0.00235223
0.000895931
-0.00123968
0.000219206
-0.00181462
-0.00143622
0.000196538
0.000924215
-0.00273884
-0.00142801
0.000546468
0.00143972
0.00144656
-0.00100374
0.0013695
0.000659293
0.00209901
0.000109544
0.00133701
0.00109519
5.82888e-05
0.0010369
0.000756612
0.000238094
0.000518519
0.000565651
0.000689725
-0.000746491
-0.000308282
9.16367e-06
-0.000317445
-0.00079051
-0.000349466
-0.000441045
-0.00131958
-0.00042534
-0.000894243
-0.00185335
0.00201763
-0.00182109
-0.000721211
0.00173391
-0.0024804
-8.718e-05
0.00128525
-0.00200646
-0.000568102
-0.000611345
0.000857207
0.000758156
-0.00120055
0.00195871
0.000898457
0.00223547
0.00141836
0.000817117
0.00245526
0.00297377
-0.00063408
0.00204821
-0.00141412
0.00311448
-0.000140706
-0.000343346
0.000562731
-0.00113083
-9.43474e-05
-0.000248999
-0.000535392
-0.000119578
-0.000415814
-0.00101382
-0.00045109
0.00181015
0.00023806
-0.00172297
-0.000283498
-0.000723577
0.000961637
-0.000970357
-0.000160475
0.000645627
-0.000929126
-0.00032473
-0.00116579
0.000442209
-0.000320773
0.000531473
0.000536434
2.57345e-05
-0.000597064
0.00057133
-0.00114005
-0.000121704
0.000344531
-0.000222827
-0.000718769
-0.000691288
0.00122772
0.00126742
0.00208454
-0.000341184
-0.000798868
-0.00175531
0.00121352
0.000871021
0.00107281
-0.000682498
-0.000284892
0.000392579
-0.000553054
-0.000671486
0.000220397
-0.000278908
-0.000125571
-0.000159321
-0.000541386
-0.000320989
-0.00124953
0.000320406
-0.000287895
-0.000601793
0.000313898
-0.000159584
-0.00049978
-5.32746e-05
0.000824509
-0.000504103
-0.000667889
0.000508305
-9.65592e-05
0.000363744
-1.92122e-05
0.000267184
-0.000216334
0.000197122
1.6898e-05
0.000142522
-0.00015942
-0.000199436
-0.000422263
-0.000255176
-0.000167087
-0.000111119
0.000258639
0.000420354
-0.000145258
0.000565612
0.00108246
0.000312241
-0.000567417
-0.000406528
-0.0012054
0.000469659
0.000612806
-0.000658181
-0.000547214
0.00134068
-2.17627e-05
0.000108573
0.000236876
0.000113322
-0.000272643
-1.09847e-05
-0.000462521
0.000183613
-0.000515795
-0.000100614
-0.000172029
-0.000421603
-0.00023799
0.000477592
3.07132e-05
-0.00079149
0.000287386
-0.000527024
1.12283e-05
-0.000239637
-0.00029665
0.000327363
-0.000342146
4.5496e-05
-7.49612e-05
-0.000235399
0.000160437
-3.82767e-05
-0.00013006
9.17835e-05
1.24615e-05
5.33829e-06
2.40763e-05
-2.94145e-05
1.25154e-05
-2.36253e-05
4.77015e-05
6.8775e-05
-9.24003e-05
8.12365e-05
-4.60123e-05
-4.6388e-05
-0.000205432
-2.36501e-05
-5.76441e-06
-7.00381e-05
-1.76865e-05
-0.000100235
-0.000105197
-0.000267322
-0.000101991
-0.00016533
-0.000669409
-9.29447e-05
0.000329821
0.000472667
0.00108547
-0.000435832
-0.000233577
0.000983046
0.000102427
1.75508e-05
2.64938e-05
0.000126124
4.47738e-05
8.13502e-05
0.000374594
5.37599e-05
-0.000225789
1.33076e-05
-7.30318e-05
-0.000152757
-0.000311022
-0.000299793
-0.000232753
-6.70408e-05
-0.00047239
-0.000145027
0.000189344
-2.89066e-05
-0.00023484
8.9813e-05
5.26309e-05
2.86056e-05
0.000144414
0.000115508
4.0365e-05
7.33655e-06
6.89705e-05
1.74517e-05
-4.79308e-05
-2.21073e-05
-0.000153128
-2.22801e-05
4.59361e-06
-4.43874e-05
-3.13084e-06
1.43044e-05
5.80197e-07
4.07982e-05
-0.000100586
-5.25423e-05
-0.000265916
-0.000144903
-0.000121013
-0.00037848
0.000334846
3.97488e-05
0.000437273
5.87929e-05
7.89352e-06
3.29047e-05
8.92438e-05
0.000128993
9.57272e-05
-2.67567e-05
0.000211235
-0.000234007
8.12499e-05
-0.000301048
-1.83951e-05
-5.3143e-06
-7.5285e-06
8.1087e-06
-5.78608e-06
-3.90113e-05
-5.37612e-06
-9.15536e-05
-1.22259e-05
9.09503e-06
-1.7602e-05
5.6064e-06
1.01288e-05
-2.02007e-06
4.30335e-05
-7.21191e-05
-1.94345e-05
-0.000193132
-0.000134339
3.17175e-05
1.1316e-05
0.00016071
2.63713e-05
-7.40597e-06
5.3859e-06
4.6573e-06
-7.4286e-06
-1.12877e-06
-8.53474e-06
-7.11376e-07
-6.71722e-06
-3.18727e-06
-2.93689e-05
1.17669e-05
-4.88034e-05
-1.85521e-06
7.46161e-06
9.9117e-06
7.4387e-06
1.23614e-05
-6.97551e-06
2.36774e-05
3.07845e-05
-7.10708e-06
-5.71558e-05
8.35239e-06
-1.46266e-07
-8.38847e-06
-7.12177e-06
-2.27394e-06
-4.44327e-06
-1.06624e-05
-1.88195e-06
-6.32522e-06
2.08387e-06
7.82783e-06
1.04363e-05
-3.92832e-06
7.10666e-06
3.51038e-06
1.13382e-05
-1.49552e-06
-5.62625e-06
-8.6026e-06
-9.58698e-06
9.84376e-07
8.49274e-07
7.69204e-07
6.33746e-06
3.79362e-06
-7.22824e-06
-3.43417e-06
-1.28545e-05
-4.33066e-06
-7.76483e-06
5.176e-07
5.81986e-06
1.18558e-05
1.27051e-05
-1.15761e-05
-1.27835e-06
1.05918e-05
2.1133e-06
2.01103e-06
7.83089e-06
-6.63801e-06
-7.91635e-06
-8.15301e-06
6.03971e-06
)
;

boundaryField
{
    movingWall
    {
        type            calculated;
        value           uniform 0;
    }
    fixedWalls
    {
        type            calculated;
        value           uniform 0;
    }
    frontAndBack
    {
        type            empty;
        value           nonuniform List<scalar> 0();
    }
    defaultFaces
    {
        type            empty;
        value           nonuniform List<scalar> 0();
    }
}


// ************************************************************************* //
