/*--------------------------------*- C++ -*----------------------------------*\
  =========                 |
  \\      /  F ield         | OpenFOAM: The Open Source CFD Toolbox
   \\    /   O peration     | Website:  https://openfoam.org
    \\  /    A nd           | Version:  8
     \\/     M anipulation  |
\*---------------------------------------------------------------------------*/
FoamFile
{
    version     2.0;
    format      ascii;
    class       volVectorField;
    location    "0.036";
    object      U;
}
// * * * * * * * * * * * * * * * * * * * * * * * * * * * * * * * * * * * * * //

dimensions      [0 1 -1 0 0 0 0];

internalField   nonuniform List<vector> 
424
(
(-0.00293045 -0.000187712 6.81359e-26)
(-0.0145984 0.000959695 0)
(-0.013062 0.00275972 2.04783e-23)
(0.000177109 0.00314401 -1.16168e-24)
(-0.0471614 0.00512881 -2.47863e-23)
(-0.0229593 0.000842692 -3.38737e-23)
(-0.00298524 0.0137854 3.21896e-24)
(-0.00099322 0.0154466 -7.79202e-25)
(-0.068454 0.00258713 -3.61247e-23)
(-0.0256736 0.00029654 3.10936e-23)
(-0.0700645 0.00227273 9.62363e-23)
(-0.0239571 0.00046358 0)
(-0.00517857 0.0501128 1.17479e-24)
(-0.000961198 0.0243923 0)
(-0.0741457 0.000564439 3.30202e-23)
(-0.0254914 -4.08594e-05 1.75085e-23)
(-0.0588325 0.000686897 0)
(-0.0195835 7.78765e-05 0)
(-0.000341214 0.0270138 0)
(-0.00266921 0.0729504 -2.78689e-23)
(-0.0731148 4.7017e-05 3.49492e-23)
(-0.0257253 -0.000338434 -1.87519e-23)
(-0.057108 0.000236184 0)
(-0.0195714 5.59693e-05 0)
(1.31594e-05 0.0259516 1.30724e-23)
(-0.000175628 0.0778153 2.51493e-23)
(-0.00232392 0.0682125 -3.74196e-23)
(-0.000416129 0.0232381 -3.88532e-23)
(-0.0747782 -0.000329047 5.88588e-23)
(-0.0231511 -0.000845864 0)
(-0.0149777 -0.000967217 -1.31645e-22)
(-0.00303351 0.000213202 0)
(-0.052857 -1.88994e-05 -1.05679e-22)
(-0.0179945 3.82893e-05 9.88209e-23)
(-0.0222803 0.0479282 6.83834e-23)
(0.000239636 0.0267011 0)
(0.000143878 0.029495 -2.27032e-22)
(0.00335215 0.0630913 2.33883e-22)
(8.22392e-05 0.0743694 2.79551e-23)
(-0.000418878 0.0598975 3.92256e-24)
(-7.00423e-06 0.0199342 -3.85021e-24)
(-0.0696997 -0.00256014 -1.05422e-22)
(-0.0487899 -0.00547229 1.33463e-22)
(-0.0140604 -0.00309197 0)
(0.000220879 -0.00335768 -2.95551e-22)
(-0.0492962 -0.000265042 3.47017e-22)
(-0.0161694 -3.363e-05 0)
(-0.106059 0.152644 -1.8907e-22)
(0.8092 0.0278444 -5.01981e-23)
(-0.0006948 0.07786 -1.62231e-23)
(-0.00574097 0.0863548 0)
(-0.00508759 0.166651 -3.61563e-24)
(-0.000243801 0.0577334 0)
(-4.43272e-05 0.0198522 0)
(-0.00398818 -0.01515 5.94411e-23)
(-0.00125354 -0.017006 2.5846e-22)
(-0.0529336 -0.000626903 0)
(-0.0174216 -0.000154476 0)
(0.405602 0.118719 1.41519e-22)
(0.86132 -0.00378869 -1.19251e-23)
(0.000144346 0.0542702 -9.2755e-23)
(-8.92152e-06 0.018663 8.79217e-23)
(-0.0066871 -0.054201 0)
(-0.00103907 -0.0267071 0)
(0.551234 0.0129018 1.56541e-22)
(0.882632 -0.0021406 0)
(0.000405847 0.0514297 -7.97787e-23)
(9.84455e-05 0.0174214 7.34153e-23)
(-0.000334715 -0.0291901 6.0261e-23)
(-0.00297457 -0.0786939 -1.85941e-23)
(0.880616 -0.00128617 -1.38177e-23)
(0.626059 0.00205534 -1.1597e-22)
(-0.00228963 0.055677 0)
(-0.000205859 0.0209234 0)
(7.72503e-05 -0.0287817 4.72729e-23)
(-0.000367028 -0.0831467 1.91036e-23)
(-0.00189062 -0.0656579 -3.97074e-22)
(-0.000341797 -0.0223606 0)
(0.879001 -0.00031717 1.30538e-23)
(0.636679 -0.000765973 -4.91738e-23)
(0.826668 -0.0267511 0)
(0.00033773 -0.0287157 -9.09897e-23)
(0.881673 0.00140748 0)
(0.886619 0.00204317 0)
(0.865781 0.00377262 0)
(-0.0195198 -0.0491138 0)
(0.00355632 -0.0682402 -4.8068e-22)
(0.000172572 -0.0307291 5.95556e-22)
(0.000290705 -0.0818419 4.36542e-23)
(-0.000557431 -0.0575139 0)
(-3.67395e-05 -0.0191806 0)
(0.638852 -0.000726501 -2.08395e-23)
(-0.104967 0.00186495 -4.2033e-23)
(0.447525 -0.115187 9.64653e-22)
(-0.000515445 -0.0836107 -8.91205e-23)
(0.641318 0.0013161 -1.23712e-22)
(0.642861 -0.00139158 2.5735e-22)
(0.569834 -0.0108247 -1.24181e-21)
(-0.108415 -0.153957 -1.80882e-22)
(-0.00646049 -0.179158 7.00936e-22)
(-0.00654376 -0.0901719 -5.69106e-22)
(5.49542e-05 -0.0571182 -3.09706e-23)
(3.50684e-05 -0.0196272 3.00351e-23)
(-0.0934161 5.60528e-05 0)
(-0.0405777 -4.47719e-05 -4.09437e-23)
(0.000386789 -0.0592079 -1.38395e-22)
(6.07538e-05 -0.0204226 -1.31583e-22)
(-0.0958135 -0.00031876 2.40127e-23)
(-0.0339276 5.80151e-06 0)
(-6.36214e-05 -0.0577763 9.9536e-23)
(8.55434e-05 -0.0198845 -9.48891e-23)
(-0.08953 -0.000141609 -2.48755e-22)
(-0.0352462 -0.000111398 -2.27368e-23)
(-0.00300396 -0.0603623 0)
(-0.00022224 -0.0234296 0)
(-0.0825812 0.000299974 1.35947e-22)
(-0.0327394 -6.72075e-05 0)
(-0.0937443 -0.00161476 0)
(-0.0295038 -9.03144e-06 1.21606e-22)
(-0.03515 -0.000113486 0)
(-0.0793762 0.0170236 2.51344e-24)
(-0.0235651 0.0117943 0)
(-0.0633943 0.0350729 0)
(-0.0120983 0.0247794 -1.84011e-24)
(-0.12939 0.10661 2.69758e-23)
(-0.156952 0.0738004 4.76627e-22)
(-0.0860491 0.135525 3.60471e-23)
(-0.107017 0.116097 -1.32297e-23)
(-0.153813 0.0622466 -8.02055e-22)
(-0.158567 0.0371572 -2.63606e-23)
(-0.135933 0.0284211 -7.1981e-22)
(-0.122326 0.0286993 -1.92505e-22)
(-0.145738 0.0475168 -6.42018e-22)
(-0.165404 0.0509462 8.38156e-22)
(-0.172279 0.024222 -5.99665e-22)
(-0.179639 0.0267202 1.0803e-22)
(-0.111514 0.00666944 1.81258e-22)
(-0.164466 0.00736508 1.24384e-21)
(-0.108993 0.00547066 2.62339e-22)
(-0.135561 0.00294176 3.39876e-22)
(-0.0366175 0.0642164 2.97331e-23)
(-0.103199 0.112702 0)
(-0.0714736 0.0677557 -2.46122e-23)
(-0.101402 0.091153 0)
(-0.0732276 0.138339 5.31246e-23)
(-0.0747563 0.147489 -1.36806e-22)
(-0.0192396 0.0859916 -3.15231e-25)
(-0.0499025 0.16435 2.19452e-22)
(-0.0694698 0.133368 -4.78841e-23)
(-0.0470383 0.15686 2.86734e-22)
(-0.0613434 0.103466 -5.81054e-23)
(-0.0971433 0.0919022 -2.77045e-23)
(-0.108342 0.0659548 0)
(-0.0947255 0.035838 1.22351e-22)
(-0.0232031 0.00243666 -2.98944e-22)
(-0.0652071 0.0140936 3.44894e-22)
(-0.15993 0.00867998 0)
(-0.178842 0.00901778 0)
(-0.187283 0.00220833 -8.62957e-22)
(-0.124241 0.000721182 -1.54601e-21)
(-0.180962 0.00213613 2.79953e-21)
(-0.101834 0.00153282 7.08465e-22)
(-0.143879 -0.000258558 7.3944e-22)
(-0.034755 0.130974 -2.14467e-23)
(-0.0441146 0.152809 2.08909e-23)
(-0.0337847 0.177233 -2.34701e-22)
(-0.00637443 0.117874 7.75401e-22)
(-0.0203975 0.181977 1.15972e-22)
(-0.0259284 0.150129 4.82799e-23)
(-0.0147269 0.167382 -3.00072e-22)
(-0.0334435 0.0887169 1.67813e-22)
(-0.0205444 0.131046 -1.17149e-21)
(-0.0143677 0.0639956 0)
(-0.00245906 0.0228094 0)
(-0.169772 -0.000962158 8.7517e-22)
(-0.1868 -0.000288287 -2.61101e-21)
(-0.126947 0.000707853 -9.19861e-22)
(-0.178142 0.000118423 2.91407e-21)
(-0.0996888 -4.60151e-05 -1.15689e-21)
(-0.144728 -0.000447015 1.43842e-21)
(-0.00532114 0.164084 -6.9345e-22)
(-0.00648673 0.182437 5.23099e-22)
(0.00120417 0.128052 0)
(-0.00488442 0.15937 0)
(-0.0016804 0.186889 -1.05474e-21)
(-0.00395341 0.102918 8.0107e-22)
(-0.000376923 0.132766 0)
(-0.169578 0.00215883 8.74294e-22)
(-0.184777 0.00136408 1.97286e-22)
(-0.130966 0.000711337 1.26083e-21)
(-0.177284 -0.00156276 -1.9141e-21)
(-0.1829 -0.00331474 -2.01387e-21)
(-0.0959279 -0.000686416 -2.26891e-21)
(-0.135853 -0.00060494 9.84787e-22)
(0.00378676 0.168064 7.66979e-22)
(0.000863224 0.122286 -8.12152e-22)
(-0.000327081 0.181058 2.55935e-21)
(0.00245287 0.187041 -1.97775e-21)
(-0.000653024 0.10465 0)
(0.000625221 0.145311 0)
(-0.161498 -0.00623315 -1.45051e-21)
(-0.180958 -0.00875457 0)
(-0.179517 -0.0272909 1.76525e-21)
(-0.113748 -0.00650058 1.05897e-21)
(-0.169473 -0.0353551 -1.96633e-21)
(-0.170387 -0.0327036 -3.24546e-21)
(-0.154059 -0.00737773 1.95868e-21)
(-0.160422 -0.0240918 1.79044e-21)
(-0.0950703 -0.000732232 -2.94399e-22)
(-0.122171 0.000422861 0)
(-0.000555596 0.168067 -4.27544e-22)
(-0.00393217 0.132108 0)
(0.00112256 0.179726 0)
(-0.000374872 0.185396 3.27078e-22)
(-6.41072e-05 0.0987045 0)
(0.00166775 0.14375 0)
(-0.147928 -0.0650684 0)
(-0.160941 -0.05779 -2.16161e-21)
(-0.161268 -0.0618732 2.91979e-21)
(-0.133839 -0.0867902 0)
(-0.0782936 -0.0162635 0)
(-0.126963 -0.0276184 -1.22174e-21)
(-0.145978 -0.0350641 -2.28595e-21)
(-0.133559 -0.068818 2.80773e-21)
(-0.145465 -0.0816581 -1.4792e-22)
(-0.0644524 -0.0337798 -7.03275e-22)
(-0.0247765 -0.0119072 0)
(-0.0137316 -0.0256299 2.14841e-21)
(-0.135915 -0.0332855 7.38038e-22)
(-0.140178 -0.0564304 -1.83404e-21)
(-0.0864822 -0.00147316 -1.29999e-21)
(-0.117715 -0.0265848 1.85767e-21)
(-0.116915 -0.0716398 8.61308e-22)
(-0.12052 -0.0879069 0)
(-0.103923 -0.101657 1.57276e-21)
(-0.0302997 0.234495 3.19069e-24)
(-0.128394 0.299191 -2.98937e-21)
(-0.141259 0.223713 3.13439e-21)
(0.11847 0.186696 -2.52071e-21)
(-0.0154745 0.171175 1.4404e-21)
(-0.0178264 0.138652 -1.74408e-21)
(-0.0483006 0.207304 -8.93407e-22)
(-0.0168702 0.18307 -3.07557e-21)
(0.000769485 0.175986 -7.88089e-22)
(-0.00789394 0.180318 3.18324e-21)
(0.00109309 0.0937538 0)
(0.00223093 0.133758 2.89918e-22)
(-0.0628633 0.199044 4.23204e-21)
(-0.100137 0.192033 -1.31949e-21)
(-0.107066 -0.11864 4.15205e-21)
(-0.128125 -0.10437 2.4782e-21)
(-0.1254 -0.106241 -3.33229e-21)
(-0.0769669 -0.0618101 5.33794e-22)
(-0.0960438 -0.120216 0)
(-0.101766 -0.0862495 2.48039e-22)
(-0.0380523 -0.0626369 -3.00291e-21)
(-0.0843683 -0.140716 -5.8434e-21)
(-0.0225774 -0.0884554 0)
(-0.0695382 -0.141564 2.05126e-21)
(-0.0494963 -0.159188 0)
(-0.0786032 -0.0273505 3.18145e-21)
(-0.0953858 -0.0618031 0)
(-0.0599958 -0.105621 -4.67096e-21)
(-0.0858296 -0.0942513 1.13913e-21)
(-0.0172217 -0.00144594 1.35945e-21)
(-0.0505384 -0.00945115 -5.47324e-21)
(-0.105843 0.238098 -5.34582e-22)
(-0.128281 0.202157 0)
(0.00967991 0.194736 1.96904e-21)
(-0.136044 0.108735 -1.29746e-21)
(0.264382 0.0572725 9.58347e-22)
(-0.0274271 0.179399 2.01715e-21)
(-0.0487728 0.177653 -2.27176e-21)
(-0.00852603 0.149651 -1.66552e-21)
(-0.0187748 0.152545 2.87595e-21)
(0.000848386 0.0910134 1.34355e-21)
(-0.00633708 0.117741 -8.89101e-22)
(-0.155854 0.0187 0)
(-0.108611 0.125474 -1.91615e-21)
(-0.140102 0.0879627 1.08879e-22)
(-0.147 0.0481799 3.14588e-21)
(-0.0533213 0.137256 -1.22861e-21)
(-0.0854235 0.113278 1.19695e-21)
(-0.0631134 -0.146886 2.24966e-22)
(-0.0626345 -0.161831 5.0555e-22)
(-0.0469755 -0.172174 0)
(-0.0375465 -0.127271 -2.84042e-22)
(-0.00860999 -0.12905 1.90393e-23)
(-0.0278874 -0.177827 -3.58759e-21)
(-0.0305918 -0.15412 1.83836e-21)
(-0.0211162 -0.16679 -2.03134e-21)
(-0.033077 -0.0922519 3.19163e-21)
(-0.0243248 -0.131524 -2.66042e-21)
(-0.0125564 -0.0607554 0)
(-0.00219271 -0.0213181 0)
(-0.0537243 0.0571627 -4.5473e-22)
(-0.114679 0.026794 1.63341e-21)
(0.104657 0.0605756 -6.68513e-22)
(0.374904 0.01762 1.67437e-21)
(-0.123889 0.0161843 0)
(-0.173342 0.0105629 0)
(-0.0164413 0.118509 -2.08559e-21)
(-0.0333622 0.113811 0)
(-0.164235 -0.00438609 0)
(-0.161513 0.00194535 0)
(-0.00695344 0.0855756 0)
(-0.00624487 0.0967001 -9.4951e-22)
(-0.123609 0.00508306 0)
(-0.122021 0.0334226 -3.18352e-21)
(-0.0437843 0.0637298 0)
(-0.0825138 0.0678608 0)
(-0.0970182 0.0402215 2.69424e-21)
(-0.150693 -0.0107224 5.67802e-22)
(-0.0119216 -0.181515 2.51277e-21)
(-0.0113265 -0.16682 0)
(0.000250541 -0.134577 -4.01915e-23)
(-0.00725361 -0.158583 0)
(-0.00349716 -0.185272 0)
(-0.00451488 -0.101695 -3.52037e-21)
(-0.0028041 -0.13158 3.21212e-21)
(-0.0449954 0.0167012 0)
(0.124056 0.0123215 -1.38877e-21)
(0.375117 0.00255461 0)
(-0.183431 0.0042983 -4.68583e-22)
(-0.154002 0.00878849 1.19458e-23)
(-0.143035 0.00536102 -2.5059e-22)
(-0.17316 0.00599438 1.30687e-22)
(-0.00436566 0.0311493 5.48673e-21)
(-0.032299 0.0255663 -1.03241e-21)
(-0.0697025 0.0120043 -2.11851e-21)
(-0.0826908 -0.0143492 0)
(-0.0829652 -0.00383697 0)
(0.000291233 0.00905284 1.72103e-21)
(-6.22159e-05 0.022797 -6.50483e-21)
(-0.0637114 -0.00557157 0)
(0.00201299 -0.174218 -5.44243e-22)
(0.00038091 -0.134366 3.98458e-23)
(-0.00164863 -0.178795 -4.63149e-21)
(0.00124107 -0.186618 4.30779e-21)
(-0.00146251 -0.0993874 0)
(0.000231096 -0.142523 -5.35889e-22)
(0.0982918 -0.0026735 0)
(0.362757 -0.00154329 0)
(-0.167656 -0.00191676 4.2712e-22)
(-0.0936963 -0.00222272 -3.6465e-22)
(-0.148802 0.000225862 3.31593e-22)
(-0.182648 0.00674418 -5.56291e-22)
(-0.0245585 -0.000857366 0)
(0.131103 -0.186339 -5.76459e-21)
(-0.150206 -0.226837 9.8265e-21)
(-0.000606702 -0.172178 1.67235e-22)
(-0.00342136 -0.136862 0)
(0.00095546 -0.178382 3.9483e-21)
(-0.000652837 -0.185444 -2.87799e-21)
(0.000623367 -0.0966443 0)
(0.00240693 -0.147666 -1.0284e-21)
(0.0901802 -0.000136806 -3.84485e-23)
(0.35725 -0.00326908 -2.09523e-21)
(-0.189861 -0.0031453 -2.14034e-21)
(-0.102779 -0.000196261 -6.25453e-22)
(-0.152031 0.00167979 5.32587e-22)
(-0.190397 -0.00175661 0)
(0.267258 -0.0532397 -6.96131e-21)
(0.0260517 -0.166441 -6.4053e-21)
(-0.0150493 -0.172519 0)
(-0.0192696 -0.143228 0)
(0.130601 -0.00834313 -3.06312e-21)
(0.382634 -0.0157048 2.61052e-21)
(0.128332 -0.0592844 1.15825e-20)
(-0.0542166 -0.212142 0)
(-0.112572 -0.219474 9.19363e-21)
(-0.0351448 -0.250316 1.60207e-21)
(-0.147763 -0.305772 -2.59613e-21)
(-0.066737 -0.194776 -1.76599e-23)
(-0.0154171 -0.182652 -3.83767e-21)
(0.000215127 -0.177187 1.65003e-21)
(-0.00636858 -0.179963 6.07281e-21)
(0.00117281 -0.106281 -3.64498e-21)
(0.000164959 -0.144622 2.36675e-21)
(-0.0487638 -0.0138151 2.45533e-21)
(-0.170204 0.00265386 3.73665e-21)
(-0.165654 -0.00566832 -3.37285e-21)
(-0.144245 7.12572e-05 2.48718e-22)
(-0.174835 -0.000243597 0)
(-0.0623842 -0.0656342 -3.84506e-21)
(-0.148183 -0.173212 -2.63075e-21)
(-0.0448222 -0.175042 -6.38827e-21)
(-0.0271611 -0.176324 7.55016e-22)
(-0.127186 -0.0149542 0)
(-0.11568 -0.0283854 -9.96963e-22)
(-0.130756 -0.172957 -6.74451e-21)
(-0.089243 -0.177607 8.70685e-21)
(-0.0737791 -0.130411 6.39444e-21)
(-0.0512915 -0.139563 0)
(-0.00747499 -0.142999 0)
(-0.0176399 -0.147257 -2.51027e-21)
(-0.00139846 -0.0988869 0)
(-0.00756356 -0.121344 0)
(-0.187172 0.000144924 2.8211e-21)
(-0.177761 -0.00521383 -5.44213e-21)
(-0.136957 0.0021532 -2.61829e-22)
(-0.168916 -0.00295169 -1.5961e-21)
(-0.155878 -0.0194895 5.16589e-21)
(-0.148146 -0.0738129 -4.4616e-21)
(-0.0184902 -0.117018 1.5051e-21)
(-0.0343632 -0.115808 3.62285e-21)
(-0.174038 0.00456148 4.46047e-21)
(-0.156105 0.00218944 -1.78838e-22)
(-0.0432061 -0.064892 -8.00888e-21)
(-0.0772416 -0.0780915 3.8556e-22)
(-0.109922 -0.062217 1.41765e-21)
(-0.00736877 -0.0837299 0)
(-0.00813113 -0.0941635 -2.74669e-21)
(-0.137559 -0.00454808 -2.16233e-21)
(-0.158387 0.0081527 1.53731e-21)
(-0.0882636 0.0167563 1.42661e-21)
(-0.00670056 -0.0281817 0)
(-0.0342254 -0.0212396 3.56547e-21)
(-0.102747 0.0109838 1.6036e-22)
(-0.0935331 -0.00904185 0)
(0.000146385 -0.00955299 0)
(-0.00114287 -0.0229134 0)
(-0.0613951 0.00669246 -3.74667e-21)
(-0.0226393 0.00112551 2.94878e-21)
)
;

boundaryField
{
    movingWall
    {
        type            fixedValue;
        value           uniform (1 0 0);
    }
    fixedWalls
    {
        type            noSlip;
    }
    frontAndBack
    {
        type            empty;
    }
    defaultFaces
    {
        type            empty;
    }
}


// ************************************************************************* //
