/*--------------------------------*- C++ -*----------------------------------*\
  =========                 |
  \\      /  F ield         | OpenFOAM: The Open Source CFD Toolbox
   \\    /   O peration     | Website:  https://openfoam.org
    \\  /    A nd           | Version:  8
     \\/     M anipulation  |
\*---------------------------------------------------------------------------*/
FoamFile
{
    version     2.0;
    format      ascii;
    class       volScalarField;
    location    "0.051";
    object      p;
}
// * * * * * * * * * * * * * * * * * * * * * * * * * * * * * * * * * * * * * //

dimensions      [0 2 -2 0 0 0 0];

internalField   nonuniform List<scalar> 
656
(
1.13642e-06
-0.235413
1.72856
-0.786693
0.18911
1.7312
-1.15105
-1.55284
2.05491
1.70645
1.7661
-0.438529
0.386131
1.74769
2.03442
2.25909
1.63662
1.58735
2.26836
2.39129
1.80217
1.82124
1.78647
1.81795
-0.0678167
0.616183
1.77435
2.01718
2.25034
1.84388
1.86668
2.55669
2.39625
2.38629
2.55442
2.69009
2.15664
2.17273
2.13733
1.7823
1.85338
0.280484
0.818515
1.80941
2.00685
2.24328
2.18696
2.19952
2.86052
2.69091
2.55894
2.38203
2.55203
2.68884
2.86101
3.02776
2.1616
2.17598
2.18753
2.12048
2.14593
1.82905
2.0007
2.23597
2.19781
2.20663
3.02659
2.85861
2.69139
3.3452
2.37745
2.5491
2.68647
2.8599
3.02762
2.18287
2.19294
2.19476
2.19428
1.98954
2.2256
2.19357
2.19303
3.6126
3.34091
3.0228
2.85623
3.34573
3.56261
4.81677
2.36916
2.54661
2.68249
2.86015
3.02895
2.0934
2.08887
2.0902
2.09237
2.09425
2.09561
5.39496
5.07772
3.65375
3.3287
3.01746
3.35186
3.52796
4.58603
5.00429
2.11826
2.10202
2.0937
2.08736
2.08123
2.07579
3.46394
5.83362
5.30395
3.6851
3.31204
3.39812
2.13861
2.12627
2.11511
2.10585
2.09766
2.09048
3.53793
3.5492
6.25265
5.51781
3.7025
3.53242
2.22665
2.21201
2.19945
2.1891
2.18001
2.1721
3.18943
3.54079
3.65144
6.69745
5.77334
3.19325
2.32661
2.3141
2.30205
2.29176
2.28288
2.2754
3.12275
3.18761
3.53832
3.76314
7.19328
3.13355
3.07497
2.40814
2.40878
2.40257
2.39128
2.37972
2.36997
3.06638
3.11275
3.1856
3.52847
3.85136
3.07021
2.47182
2.50148
2.49485
2.478
3.06527
3.05759
3.10347
3.18146
3.51421
3.07086
3.18787
2.3185
2.30648
3.08446
3.06822
3.05933
3.05016
3.09355
3.17539
3.15761
3.19232
3.21488
3.09288
3.08366
3.06492
3.05445
3.04315
3.08405
3.13669
3.15926
3.19686
3.21609
3.33912
3.09798
3.09261
3.08254
3.06256
3.05015
3.03681
3.12357
3.1367
3.1599
3.19997
3.22831
3.38611
3.1005
3.09833
3.09279
3.08206
3.06069
3.0464
3.11579
3.12308
3.1363
3.15975
3.20181
3.23914
3.09864
3.10074
3.09875
3.09307
3.08185
3.05911
3.11144
3.11505
3.12234
3.13556
3.15934
3.20269
3.10096
3.09836
3.10091
3.09919
3.09348
3.08171
3.11412
3.11106
3.11428
3.12157
3.13475
3.15894
3.10344
3.10068
3.09825
3.10101
3.09963
3.09385
3.10741
3.1103
3.11443
3.11076
3.11361
3.12081
3.1341
3.10329
3.1004
3.09821
3.10108
3.10005
3.10749
3.11066
3.11456
3.11061
3.113
3.12019
3.10314
3.10014
3.0982
3.10115
3.10758
3.111
3.11462
3.11051
3.11244
3.10302
3.0999
3.09819
3.10765
3.1113
3.11465
3.11042
3.1029
3.09969
3.10772
3.11158
3.11468
3.10279
3.10778
3.11183
0.611884
0.921021
2.12101
2.0504
1.83008
1.80108
1.83261
1.36906
1.47457
1.26355
1.80879
1.85007
2.14492
2.14381
2.16557
2.1617
2.10586
2.08048
2.01326
1.95883
1.74483
1.56628
1.91246
1.84329
1.99333
1.99095
1.88172
2.10629
2.10809
2.14115
2.15638
2.1634
2.12647
2.08135
2.09213
2.00127
1.94346
2.13242
2.22592
2.11436
2.3621
2.27292
2.13657
2.07577
4.46969
4.70428
3.32658
2.54995
2.45661
3.17378
3.02251
2.68292
2.64624
2.96538
2.86569
2.80943
2.14203
2.11408
2.12935
2.17222
2.22555
2.21805
2.20887
2.20972
2.2628
2.1637
2.45113
2.39417
2.28213
2.29803
3.96857
3.53529
3.45039
3.98481
3.79629
3.42535
3.28025
3.3103
3.16929
2.6207
2.52757
3.08334
2.97629
2.88856
2.81536
2.74313
2.14588
2.16446
2.19167
2.25013
2.27639
2.34424
2.369
2.56636
2.41785
2.36473
2.65341
2.48425
2.42317
3.66969
3.5396
3.4892
3.5274
3.44782
3.36977
3.22782
3.17445
3.05162
2.96068
2.87899
2.7395
2.70073
2.2361
2.25203
2.27619
2.36689
2.38552
2.4366
2.47456
2.58789
2.53981
2.80873
2.7331
2.59643
2.54081
3.18411
3.31868
3.32922
3.35982
3.27933
3.20684
3.11496
3.03157
2.89184
2.97778
2.91245
2.33722
2.55201
2.37845
2.39103
2.43959
2.45264
2.51767
2.85237
2.69193
2.73499
2.8827
2.59722
2.70599
2.6801
2.88294
3.12813
3.15306
3.00082
2.96644
3.08532
3.03088
3.1933
3.2402
3.21774
3.00977
2.98407
3.17401
3.02788
3.04251
2.42719
2.61991
2.53597
2.59463
2.47627
2.47932
2.51155
2.74699
2.81513
2.86869
2.92063
2.67849
2.75353
2.70924
2.91806
2.9793
3.03642
3.03236
3.09717
3.14409
3.12435
3.06814
3.06553
3.07242
3.06012
3.08188
3.12747
3.05148
3.07582
3.03789
3.07604
3.07688
3.09109
3.07343
3.06663
3.07127
2.56034
2.45377
2.52524
2.63849
2.65779
2.53199
2.54461
2.63123
2.94431
2.798
2.83872
2.67743
2.79837
2.98255
2.96402
3.04136
3.07017
3.09701
3.14012
3.14467
3.20247
3.22659
3.22703
3.19738
3.1691
3.18931
3.14289
3.2028
3.18199
3.1852
3.14411
3.1183
3.10745
3.05699
3.09838
3.10044
3.12578
3.09686
3.07069
3.06114
3.06656
3.06345
3.06723
3.09315
3.2383
2.45031
2.33547
2.41752
2.56445
2.59347
2.67054
2.8406
2.8293
2.86801
3.11032
3.00031
3.00877
3.27025
3.16341
3.14097
3.3046
3.27879
3.36738
3.16526
3.13398
3.1653
3.15363
3.15708
3.08087
3.08248
3.13215
3.10803
3.11364
3.08879
3.06208
3.09257
3.09853
3.0873
3.09073
3.10219
3.37863
3.18451
3.06699
3.02382
3.02724
2.98073
2.77798
3.02501
3.32078
3.09141
3.09107
3.14606
3.13215
3.13876
3.12828
3.13757
3.0934
3.0913
3.12676
3.11491
3.10219
3.09166
3.10292
3.08918
3.54149
3.09767
3.09759
3.09738
3.09842
3.09945
3.10031
3.12699
3.11425
3.12552
3.12336
3.12463
3.09817
3.10531
3.10037
3.11323
3.11543
3.09932
3.10178
3.10016
3.10043
3.09939
3.10021
3.11763
3.11465
3.11608
3.11649
3.11609
3.10228
3.1047
3.10806
3.10962
3.11275
3.11164
3.1018
3.10295
3.10113
3.10172
3.11227
3.11216
3.11031
3.10526
3.10956
3.1071
3.11332
3.11199
3.10358
3.10508
3.10726
3.10982
3.10945
)
;

boundaryField
{
    movingWall
    {
        type            zeroGradient;
    }
    fixedWalls
    {
        type            zeroGradient;
    }
    frontAndBack
    {
        type            empty;
    }
    defaultFaces
    {
        type            empty;
    }
}


// ************************************************************************* //
