/*--------------------------------*- C++ -*----------------------------------*\
  =========                 |
  \\      /  F ield         | OpenFOAM: The Open Source CFD Toolbox
   \\    /   O peration     | Website:  https://openfoam.org
    \\  /    A nd           | Version:  8
     \\/     M anipulation  |
\*---------------------------------------------------------------------------*/
FoamFile
{
    version     2.0;
    format      ascii;
    class       surfaceScalarField;
    location    "0.055";
    object      phi;
}
// * * * * * * * * * * * * * * * * * * * * * * * * * * * * * * * * * * * * * //

dimensions      [0 3 -1 0 0 0 0];

internalField   nonuniform List<scalar> 
1107
(
0.000315988
-0.000643388
0.000633495
-0.000306094
0.000616968
-0.00030098
-2.96869e-05
0.000646655
0.000304963
0.000538556
-0.000106655
-0.000736864
-0.000968718
0.000630292
-9.76555e-05
0.000701463
0.000286064
-5.36023e-05
-1.49163e-05
-3.72715e-05
0.000683926
-3.30508e-05
1.43466e-05
-8.79506e-05
0.000180753
-0.000148835
-6.49691e-05
0.000300273
-0.000856384
-0.00126768
0.000599239
-0.000207462
0.000740099
0.000760963
-9.67717e-05
4.17061e-05
0.000814902
-9.56444e-05
3.58076e-06
-4.28364e-05
-1.13355e-05
0.000725632
0.000853051
2.99195e-05
-6.80684e-05
6.4473e-05
-0.000126751
-8.65571e-05
2.51488e-05
-4.86264e-05
0.000227397
-0.00014076
-0.000213387
0.000277849
-0.000115422
0.000296554
-0.000875089
-0.0015106
0.000539473
-0.000366489
0.000758266
0.000828758
-0.00018543
0.000899208
-0.000166095
5.21558e-06
-2.29032e-05
-6.11992e-06
-2.2284e-05
0.000865025
1.03098e-05
0.000755552
0.000946136
-0.000114996
0.000963423
-3.95708e-05
0.000951801
-2.3901e-05
3.55228e-05
3.54039e-05
-7.27542e-05
-4.92068e-05
1.36219e-05
-2.68444e-05
-8.24024e-05
-0.000131112
0.000322168
-0.000215175
-0.00032038
0.000397173
-0.000190427
0.000306688
-0.000784604
0.000459869
-0.00166378
-0.000570338
0.000743322
0.000880848
-0.000308013
0.000968405
-0.000253651
2.99795e-06
-1.22792e-05
-3.12197e-06
8.81518e-05
0.000916848
-5.3199e-05
0.000853444
-1.232e-05
0.000765862
0.00102604
-0.000172635
0.00105039
-6.39138e-05
0.00103954
4.63674e-05
0.000999338
0.000128356
-0.000118486
0.000932754
0.00018507
5.74532e-05
-0.000104206
-3.56497e-05
2.76051e-05
-1.93586e-05
1.04142e-05
-9.65358e-06
-0.000129773
-0.000216514
-6.19197e-05
-0.000172059
0.000691184
-0.000801653
0.000902275
-0.000466965
0.00101084
-0.000362212
2.20824e-06
-4.07324e-06
-9.13736e-07
0.000865613
-6.72507e-05
0.000823915
-2.36701e-05
0.000753542
0.000822811
-0.000147376
0.000257318
0.00107948
-0.000241276
0.00111054
-9.49756e-05
0.00110221
5.46953e-05
0.00105812
0.000172447
0.000974383
0.000268806
4.56529e-05
-3.06088e-05
-7.69638e-05
2.44424e-05
-1.44393e-05
1.14686e-05
-6.38488e-06
4.27963e-06
-2.46459e-06
0.000877186
-0.000652968
0.00100516
-0.000490187
8.82633e-07
-6.76246e-07
-3.11016e-08
0.000334099
0.000669992
-0.00018128
0.000790584
-7.2347e-05
0.000785597
-2.89332e-05
0.000729872
0.000827156
0.000404545
0.000622633
0.000538622
0.000388275
-0.00129504
0.00152939
0.00108429
-0.000320406
0.0011241
-0.000134785
0.00112289
5.59054e-05
0.0010775
0.000217834
0.000975022
0.000371288
-3.58726e-05
-5.5799e-05
6.10627e-05
-1.92691e-05
-3.10427e-05
-9.09295e-06
-1.6561e-05
-3.38019e-06
-8.17735e-06
-6.70667e-07
-3.38577e-06
-7.01767e-07
0.000988055
0.000345362
-0.000945141
0.000371501
-0.000996545
0.000688038
-7.87329e-05
0.000739091
-2.58404e-05
0.000700938
0.000793341
0.000586225
0.000547481
0.000784483
0.000411848
0.00166503
0.000483278
0.000916625
-5.78762e-05
-9.54202e-05
9.74974e-05
-3.13284e-05
-5.75906e-05
-1.47853e-05
-3.31041e-05
-5.47303e-06
-1.74897e-05
-1.09566e-06
-7.76314e-06
-1.79742e-06
0.000101536
0.000300577
-5.67513e-05
0.000227741
-0.000801381
0.000357804
-0.000666312
0.000680873
-2.05148e-05
0.000675098
0.000415763
0.000169051
-4.46058e-05
-0.00012532
7.45057e-05
-2.45177e-05
-7.76788e-05
-1.17969e-05
-4.58248e-05
-4.48764e-06
-2.47989e-05
-9.72897e-07
-1.12779e-05
-2.77032e-06
0.000246543
0.000202853
-0.00014882
0.000201283
-3.02938e-05
0.000136219
-0.000579796
0.000342993
-0.000328432
0.000654583
0.00029755
0.000364757
-1.47371e-05
-0.000134177
2.35943e-05
-8.35206e-06
-8.40638e-05
-4.1337e-06
-5.00432e-05
-1.65833e-06
-2.72743e-05
-4.04687e-07
-1.25315e-05
-3.175e-06
0.000150033
0.000136376
-8.35552e-05
0.000129027
-7.65638e-05
0.000120962
-1.50371e-05
7.00023e-05
-0.000306805
0.000326151
0.000201744
0.000245839
1.40114e-05
-0.000122513
-2.56761e-05
7.12051e-06
-7.71729e-05
3.17317e-06
-4.60959e-05
1.11961e-06
-2.52207e-05
1.79956e-07
-1.15919e-05
-2.99504e-06
0.000129882
7.88232e-05
-7.23294e-05
8.592e-05
-4.0448e-05
7.41598e-05
-2.97618e-05
5.9338e-05
-4.37284e-06
1.93462e-05
0.000119852
0.000211773
-8.91975e-05
5.99173e-05
0.000149133
1.62326e-05
-3.57773e-05
-0.000102968
7.58406e-06
-6.85243e-05
3.2423e-06
-4.17541e-05
1.16996e-06
-2.31484e-05
2.25274e-07
-1.06472e-05
-2.76977e-06
3.84562e-05
-4.88305e-05
4.85802e-05
-3.49896e-05
4.90202e-05
-1.53084e-05
3.54117e-05
-5.83544e-06
1.49733e-05
-5.22243e-05
2.39814e-05
8.81602e-05
-3.18608e-05
5.76603e-05
-6.75536e-05
-1.25489e-05
-4.24603e-05
-2.8133e-06
-2.03827e-05
-5.58307e-06
1.45056e-05
-2.82737e-05
2.31033e-05
-2.33537e-05
2.72173e-05
-1.31868e-05
2.31849e-05
-3.08164e-06
9.1379e-06
4.94466e-06
-2.57893e-05
4.48261e-05
-2.07293e-06
7.05355e-06
7.2406e-06
-1.22212e-05
-1.29683e-05
5.59899e-05
-6.34043e-05
-1.85514e-05
-1.90601e-06
-8.21421e-06
1.50649e-05
2.3422e-06
-1.36258e-05
8.21148e-06
-1.33818e-05
1.26391e-05
-8.77542e-06
1.27131e-05
-2.71495e-06
6.05626e-06
1.55626e-06
4.36634e-06
-7.99552e-06
-4.98394e-07
3.46087e-06
4.0911e-06
-1.88496e-06
8.46426e-06
-1.68297e-05
1.02504e-05
-3.08053e-06
-3.41737e-07
1.51626e-06
-1.77637e-06
-4.09563e-06
9.0469e-07
-6.31904e-06
4.24165e-06
-4.98437e-06
5.78686e-06
-1.84916e-06
3.34131e-06
3.49129e-06
1.69691e-06
-3.63194e-06
1.66978e-06
2.19816e-06
1.17207e-07
1.45872e-06
-7.51425e-07
3.04255e-06
6.17312e-06
-2.6784e-06
4.80679e-06
-2.38566e-05
2.17282e-05
-2.16039e-06
2.1568e-06
-3.07694e-06
-2.22311e-06
1.05024e-07
-1.40598e-06
-1.78496e-06
2.4114e-07
-2.31853e-06
1.84364e-06
-1.04114e-06
1.49215e-06
3.82696e-06
-3.3995e-07
4.27473e-09
2.65035e-06
7.1634e-07
1.33359e-06
9.81781e-07
2.41643e-07
4.6565e-07
-2.00245e-07
5.64396e-07
-5.81898e-07
5.3887e-06
-1.20678e-06
1.73039e-06
-2.684e-06
-1.39668e-06
1.33037e-06
-1.4718e-06
1.70848e-07
-9.33532e-07
-6.1028e-07
6.12628e-09
-4.81014e-07
4.51014e-07
2.69254e-06
-2.26609e-06
3.40052e-06
2.64391e-06
-3.33497e-07
1.79276e-06
2.57174e-07
8.80199e-07
3.43227e-07
1.82325e-07
8.30813e-08
-1.75007e-08
-1.67607e-06
-9.45271e-07
1.41456e-06
-6.57195e-07
9.90906e-07
-8.3692e-07
6.95492e-07
-8.68034e-07
1.05353e-07
-4.93284e-07
-1.10867e-07
-2.99983e-08
1.49498e-06
-2.02454e-06
3.22211e-06
1.71742e-06
-1.33958e-06
1.67597e-06
-2.16708e-07
1.07069e-06
6.66817e-08
4.60782e-07
6.47697e-08
6.55804e-08
-2.45365e-06
-1.38641e-06
2.164e-06
-1.03978e-06
-5.62687e-07
-3.35071e-07
4.89057e-07
-4.52456e-07
2.79916e-07
-4.20827e-07
3.28985e-08
-1.40863e-07
2.14315e-06
1.26911e-06
-1.91728e-06
8.31683e-07
-1.1388e-06
1.01224e-06
-6.75848e-07
9.54165e-07
-1.00182e-07
5.21981e-07
5.48163e-09
1.3035e-07
-2.91531e-06
-7.48304e-07
1.20996e-06
-1.62269e-06
-8.03492e-07
-6.0639e-07
-2.91368e-07
-1.51843e-07
1.88444e-07
-2.02801e-07
6.18919e-08
-1.07964e-07
-2.81595e-06
1.88281e-07
-2.87641e-07
1.28604e-06
-1.95883e-06
1.34413e-06
7.56672e-07
4.29898e-07
-5.56458e-07
5.41468e-07
-2.6315e-07
4.48168e-07
-2.63692e-08
1.35831e-07
-1.94618e-06
-4.24816e-07
-1.00689e-06
-4.02997e-07
-3.23567e-07
-1.19643e-07
-5.33123e-08
3.89549e-08
-4.60718e-08
-1.87192e-06
1.14022e-07
7.5825e-07
7.94261e-07
3.92312e-07
1.98157e-07
-2.13145e-07
2.40833e-07
-5.58155e-08
1.09462e-07
-1.22049e-06
-2.11211e-07
-5.67986e-07
-1.58579e-07
-1.45257e-07
-2.76985e-08
-7.11784e-09
-1.16687e-06
6.04051e-08
3.85638e-07
4.29362e-07
1.61108e-07
7.12995e-08
-4.36102e-08
5.36467e-08
-6.95307e-07
-8.38899e-08
-2.68275e-07
-3.55617e-08
-3.48165e-08
-6.61113e-07
2.62112e-08
1.53887e-07
1.94979e-07
3.74301e-08
1.00368e-08
-3.32535e-07
-1.96299e-08
-7.03781e-08
-3.13575e-07
7.25077e-09
3.52907e-08
4.74667e-08
-9.0008e-08
-8.27574e-08
0.000597179
-0.00138178
-0.00106661
0.000323397
-0.000539911
0.000860684
-0.000537286
0.000540303
0.00130423
-0.00076393
0.00111381
-0.000267976
0.00157005
-0.00183802
0.000503442
-0.000298211
-0.00139486
0.00063093
0.000139435
-0.000311494
-0.000400476
4.44303e-05
-0.000121394
-0.000267063
0.000331815
-0.000732292
0.00117711
-0.000845291
0.00063982
-0.00075504
0.00207397
-0.00144304
0.000235944
0.00130958
-0.00107364
0.00101137
0.000358403
0.00101913
-0.00177417
-0.000423905
-6.03314e-05
0.00023033
-0.000290662
-3.67329e-05
-0.000769025
-6.74191e-05
-0.000701605
0.00137374
-0.00144116
0.000528445
-0.00124573
0.00142787
-0.00185178
0.000354232
0.000886851
-0.000532619
-0.00124525
0.000755068
-0.00137881
0.0010584
-0.000623742
0.000989611
-0.00223534
-0.000862165
0.000861298
0.000803729
0.00177792
-0.000412743
0.000998968
-0.00149345
0.00135867
-0.000435047
-0.00116185
0.00074911
-0.000790564
-0.00132459
0.0013805
3.40756e-05
-0.00129296
0.000502398
-0.00107513
0.000305368
-0.000193164
0.000132798
-0.000325962
-0.000568808
0.000281094
-0.000849902
-0.00116006
0.000202293
-0.00136236
-0.00203304
0.00114291
-0.00200507
-0.000610288
-1.34537e-05
-0.00066644
0.000231393
-0.000679894
-2.52565e-05
-0.00200779
-0.00203033
-0.000901294
0.00170502
-0.000116811
0.000882157
0.000282158
0.00149576
0.00198718
0.00166481
-2.60394e-05
0.000908196
-0.00101586
0.000989819
-0.000266749
-0.000585624
0.000619699
-0.00035423
-0.00097024
0.000703491
-0.000467843
-0.000796912
0.000329069
-0.000491544
0.000128155
-0.000251456
8.11408e-05
-0.000332597
-0.000768761
3.48021e-05
-0.000803563
-0.00132755
-0.000351183
-0.000976371
-0.00235897
0.000885607
-0.00123984
0.000205713
-0.00182462
-0.0014268
0.000186965
0.000920723
-0.00274534
-0.00143825
0.000539463
0.00144772
0.00144766
-0.00100864
0.0013734
0.000656173
0.00210389
9.98092e-05
0.00134785
0.00108963
4.53061e-05
0.00104432
0.000748797
0.000219563
0.000529234
0.000548632
0.000676787
-0.000750016
-0.000309003
9.96463e-06
-0.000318967
-0.000793598
-0.000349488
-0.000444111
-0.00132586
-0.000424929
-0.00090093
-0.00186318
0.00201441
-0.00182744
-0.000730929
0.00173306
-0.00248308
-9.43835e-05
0.00128843
-0.00201935
-0.00057475
-0.000616592
0.00086243
0.000756808
-0.00121191
0.00196872
0.00089198
0.00223983
0.00140735
0.000832477
0.00245168
0.00298091
-0.000632842
0.00205848
-0.00142564
0.00311592
-0.000135008
-0.000344644
0.000564899
-0.00113965
-9.40654e-05
-0.000250578
-0.000538176
-0.000119207
-0.000418969
-0.00102014
-0.000455238
0.00182321
0.000235267
-0.00172883
-0.000290526
-0.00073246
0.000967727
-0.000976723
-0.000162927
0.000647883
-0.000938408
-0.00032884
-0.00117778
0.000445323
-0.000324884
0.000536657
0.000537547
2.77434e-05
-0.000604956
0.000577212
-0.00115004
-0.000122731
0.000348814
-0.000226083
-0.000727687
-0.000701908
0.00123945
0.00126681
0.00209929
-0.00034155
-0.000808489
-0.00176719
0.00121679
0.000882503
0.00108178
-0.000685411
-0.000286356
0.000394703
-0.00055763
-0.000676319
0.000221081
-0.000281616
-0.000125805
-0.00016055
-0.000544774
-0.000323693
-0.00126002
0.000321611
-0.000292293
-0.000608026
0.000315733
-0.000162704
-0.000502784
-5.48454e-05
0.000831625
-0.000510013
-0.000675873
0.00051317
-9.86608e-05
0.000368559
-1.97457e-05
0.000269898
-0.000219286
0.00019954
1.71397e-05
0.000144461
-0.000161601
-0.000202146
-0.000428229
-0.000258921
-0.000169308
-0.000112777
0.00026191
0.00042388
-0.000148822
0.000572702
0.00109063
0.000316808
-0.000575728
-0.000410879
-0.00121937
0.000468975
0.000621657
-0.000666067
-0.000553301
0.00135148
-2.15292e-05
0.000109689
0.00024038
0.000113832
-0.000274382
-1.08641e-05
-0.000466009
0.000184393
-0.000520854
-0.000100929
-0.000173454
-0.000424621
-0.000240229
0.00048321
2.99592e-05
-0.000798944
0.000288931
-0.000531568
1.0714e-05
-0.000242637
-0.000300492
0.000330451
-0.000346127
4.56352e-05
-7.62283e-05
-0.000238466
0.000162238
-3.89263e-05
-0.000131828
9.29017e-05
1.26334e-05
5.49794e-06
2.43357e-05
-2.98337e-05
1.27386e-05
-2.4017e-05
4.83527e-05
6.96898e-05
-9.37068e-05
8.23232e-05
-4.68659e-05
-4.6841e-05
-0.000208467
-2.42105e-05
-5.62313e-06
-7.10515e-05
-1.78443e-05
-0.000102133
-0.000106334
-0.000271441
-0.000104026
-0.000167415
-0.000679754
-9.40457e-05
0.000334426
0.000478657
0.00110031
-0.000443019
-0.000236735
0.00099632
0.000103994
1.86381e-05
2.6188e-05
0.000128327
4.64565e-05
8.18709e-05
0.000380883
5.4024e-05
-0.000227478
1.35296e-05
-7.32695e-05
-0.000154208
-0.000313498
-0.000302784
-0.000234744
-6.80399e-05
-0.000477382
-0.000146931
0.000191738
-2.95003e-05
-0.000237373
9.04426e-05
5.33831e-05
2.89401e-05
0.000146285
0.000116784
4.09198e-05
7.43297e-06
6.98599e-05
1.76834e-05
-4.90449e-05
-2.20066e-05
-0.000155379
-2.30243e-05
5.17994e-06
-4.50309e-05
-2.81553e-06
1.51557e-05
-9.07902e-08
4.13437e-05
-0.00010306
-5.23193e-05
-0.000270475
-0.000148381
-0.000122094
-0.000385116
0.00034158
3.93027e-05
0.000445574
6.0458e-05
9.3421e-06
3.20016e-05
9.1213e-05
0.000130516
9.69768e-05
-2.71169e-05
0.000213761
-0.000236164
8.19557e-05
-0.000304204
-1.85514e-05
-5.3887e-06
-8.01434e-06
7.92355e-06
-6.49807e-06
-4.06472e-05
-4.38367e-06
-9.29665e-05
-1.26686e-05
9.85302e-06
-1.70522e-05
6.22113e-06
1.13581e-05
-3.43458e-06
4.33597e-05
-7.50084e-05
-1.79581e-05
-0.000197102
-0.000136644
3.3326e-05
1.00337e-05
0.000163842
2.71972e-05
-8.33581e-06
4.9012e-06
5.0512e-06
-8.12813e-06
-1.44687e-06
-9.78267e-06
-7.62086e-07
-7.36605e-06
-3.44609e-06
-3.02488e-05
1.31966e-05
-4.82069e-05
-1.80219e-06
8.02331e-06
1.13945e-05
8.02763e-06
1.30737e-05
-8.17249e-06
2.31074e-05
3.04765e-05
-7.3691e-06
-5.76737e-05
9.46687e-06
-4.35574e-07
-9.3471e-06
-8.60806e-06
-2.50228e-06
-4.86377e-06
-1.18494e-05
-2.03154e-06
-6.8953e-06
2.79696e-06
8.59752e-06
1.22638e-05
-4.22412e-06
7.62466e-06
3.80351e-06
1.2401e-05
-2.50844e-06
-6.09962e-06
-9.87754e-06
-1.11569e-05
1.27938e-06
1.1069e-06
8.24013e-07
6.80064e-06
4.04613e-06
-8.1129e-06
-3.73648e-06
-1.42125e-05
-4.73131e-06
-8.46779e-06
5.02508e-07
6.29814e-06
1.29035e-05
1.40104e-05
-1.28847e-05
-1.32782e-06
1.16053e-05
2.40513e-06
2.12887e-06
8.427e-06
-7.25784e-06
-8.58566e-06
-8.8733e-06
6.46818e-06
)
;

boundaryField
{
    movingWall
    {
        type            calculated;
        value           uniform 0;
    }
    fixedWalls
    {
        type            calculated;
        value           uniform 0;
    }
    frontAndBack
    {
        type            empty;
        value           nonuniform List<scalar> 0();
    }
    defaultFaces
    {
        type            empty;
        value           nonuniform List<scalar> 0();
    }
}


// ************************************************************************* //
