/*--------------------------------*- C++ -*----------------------------------*\
  =========                 |
  \\      /  F ield         | OpenFOAM: The Open Source CFD Toolbox
   \\    /   O peration     | Website:  https://openfoam.org
    \\  /    A nd           | Version:  8
     \\/     M anipulation  |
\*---------------------------------------------------------------------------*/
FoamFile
{
    version     2.0;
    format      ascii;
    class       volScalarField;
    location    "0.077";
    object      p;
}
// * * * * * * * * * * * * * * * * * * * * * * * * * * * * * * * * * * * * * //

dimensions      [0 2 -2 0 0 0 0];

internalField   nonuniform List<scalar> 
424
(
-2.27741e-06
0.054945
0.0135823
0.118132
0.0956784
0.247627
0.102425
0.0550535
0.277533
0.495544
0.479005
0.49189
0.0114792
-0.15047
0.508115
0.749809
0.508324
0.513993
-0.421987
-0.184044
0.749241
1.00249
0.67288
0.673596
-0.67418
-0.436593
-0.380991
-0.396403
0.98843
1.26993
1.476
1.53837
0.850206
0.848287
-3.52155
-0.889003
-1.11167
-1.3891
-0.676889
-0.412367
-0.417517
1.23577
1.42965
1.5256
1.41535
1.00686
1.0045
-2.88775
-2.65085
-0.887294
-1.12253
-1.18074
-0.576916
-0.578137
1.4328
1.47052
1.02533
1.02155
-2.26891
-1.12622
-0.759548
-0.75724
1.51791
1.67541
-1.05153
-0.621382
-0.946258
-0.9452
1.92539
1.7087
-0.0206586
-0.598829
-1.01222
-1.03643
2.1817
1.93777
1.89831
1.91153
0.728326
0.00852612
4.3759
2.40411
1.47386
2.10453
2.6824
5.2552
2.88579
2.61767
2.17947
1.94304
1.94878
0.733721
-0.386796
3.94779
2.39747
1.45939
2.08229
2.56929
4.53664
2.64152
2.62752
2.10508
2.10581
-0.162737
-0.412596
2.29277
2.29032
0.393142
-0.163112
2.48809
2.49279
0.979268
0.392574
2.57514
2.60595
1.56103
0.978236
1.82269
1.55617
1.84081
0.130969
0.0406174
0.0477953
0.0788444
0.0946174
0.165942
-0.0272737
0.0103183
0.224519
0.318163
0.333386
0.151109
0.177736
0.219213
0.336166
0.303766
0.294937
0.445447
0.46167
0.446467
0.0654993
-0.000489805
0.0704076
0.0359239
-0.0162633
-0.0625767
-0.040209
-0.160886
-0.0822125
-0.189132
0.00096863
0.0449864
0.0690649
0.113929
0.305988
0.169844
0.363396
0.353392
0.490772
0.511375
0.584004
0.513449
0.599117
-0.0307959
-0.033033
-0.185969
-0.202715
-0.231941
-0.267438
-0.271627
-0.0484798
-0.28176
-0.09484
-0.233471
0.643118
0.639069
0.751051
0.783362
0.679203
0.784469
-0.293673
-0.281603
-0.43914
-0.338935
-0.401501
-0.381388
-0.348945
0.885765
0.885156
0.985874
0.958336
1.05253
0.853808
0.94381
-0.546825
-0.672291
-0.503751
-0.554934
-0.41995
-0.515272
1.13597
1.15074
1.20721
1.21799
1.27455
1.2213
1.10959
1.18322
1.00481
1.08282
-0.788777
-0.883628
-0.696322
-0.776866
-0.583076
-0.700532
1.32539
1.30433
1.31731
1.35457
1.40206
1.38623
1.38255
1.38614
1.39078
1.49792
1.50041
1.44977
1.18467
1.27084
1.03845
1.18546
1.35378
1.38436
1.45394
-1.26539
-1.65517
-2.50195
-2.08795
-1.01827
-1.1173
-1.23151
-1.01888
-0.868087
-0.935372
-0.764239
-0.869983
-1.14724
-1.25485
1.50178
1.44761
1.45842
1.45282
1.51798
1.45795
1.46853
1.51758
1.5627
1.58836
1.68705
1.3404
1.43591
1.51167
1.49516
1.13831
1.26318
-1.48759
-1.41867
-1.63487
-1.23537
-1.0802
-1.10403
-1.14898
-1.00607
-1.0705
-0.94255
-1.01911
-0.854647
-1.19491
-1.10098
-1.07425
-1.11786
-1.22075
1.56627
1.62306
1.69908
1.55626
1.73552
1.73054
1.76243
1.78544
1.56426
1.77376
1.6119
1.7381
-0.817792
-0.723144
-0.941014
-0.59432
-0.698814
-0.564764
-1.09592
-1.10537
-0.746698
-0.756844
-1.02291
-1.12657
-1.0385
-1.07744
-1.24114
-1.172
-1.05085
-0.753263
1.77594
1.78998
1.94085
1.86886
1.91346
1.88615
1.87285
-0.395461
-0.399231
0.0271702
-0.357063
-0.0567653
-0.41174
-0.344856
-1.40075
-1.31499
-1.0818
-1.21412
-1.15623
-1.51012
-1.48561
-1.19796
2.06705
2.18189
2.01575
2.06495
1.94687
2.03004
0.311378
0.738194
0.073768
0.327587
-0.160596
0.145255
-1.13431
3.71447
4.06681
2.31328
2.39275
2.1887
2.31082
2.11144
2.20104
1.14675
1.45225
0.806042
1.13723
0.417349
0.792428
2.57848
3.13397
2.5337
2.62168
1.88887
2.07567
2.37381
2.73886
3.01106
2.74798
3.21761
2.65033
2.52465
2.40089
2.47263
2.29177
2.39322
1.90381
1.44095
1.52928
0.981563
1.35576
2.28351
2.92142
2.65902
2.62054
2.17945
2.2052
2.79793
2.68011
2.70141
2.67883
2.58136
2.59596
2.479
2.58926
1.79191
2.03816
1.56982
1.77239
2.39698
2.65507
2.62625
2.64325
2.15866
2.35993
2.76897
2.63488
2.67418
2.59413
2.66897
1.84545
2.12327
2.62704
2.97747
2.88876
2.53057
2.56605
3.09529
3.05862
2.63791
2.55884
)
;

boundaryField
{
    movingWall
    {
        type            zeroGradient;
    }
    fixedWalls
    {
        type            zeroGradient;
    }
    frontAndBack
    {
        type            empty;
    }
    defaultFaces
    {
        type            empty;
    }
}


// ************************************************************************* //
