/*--------------------------------*- C++ -*----------------------------------*\
  =========                 |
  \\      /  F ield         | OpenFOAM: The Open Source CFD Toolbox
   \\    /   O peration     | Website:  https://openfoam.org
    \\  /    A nd           | Version:  8
     \\/     M anipulation  |
\*---------------------------------------------------------------------------*/
FoamFile
{
    version     2.0;
    format      ascii;
    class       surfaceScalarField;
    location    "0.077";
    object      phi;
}
// * * * * * * * * * * * * * * * * * * * * * * * * * * * * * * * * * * * * * //

dimensions      [0 3 -1 0 0 0 0];

internalField   nonuniform List<scalar> 
662
(
-2.03103e-05
1.61456e-05
4.1651e-06
2.07815e-05
-4.10918e-05
-8.80981e-05
3.59284e-05
6.83153e-05
-1.73853e-05
2.15504e-05
-0.000152202
8.48856e-05
1.04193e-05
-5.15112e-05
9.37772e-05
-7.52341e-05
-2.26136e-05
4.41641e-05
-0.00018105
3.92675e-05
1.72378e-06
-5.32349e-05
2.20357e-06
-0.000121869
-4.69578e-06
0.000124361
-3.4241e-05
3.64445e-05
0.000164467
-9.33031e-05
5.59864e-05
-1.18223e-05
-0.000184025
4.69836e-06
-7.66993e-07
-5.24679e-05
1.15417e-06
-0.000117012
-6.01072e-06
-3.30868e-05
5.77068e-05
-1.72035e-06
0.000196192
-4.35475e-05
-0.000182035
-2.75669e-06
-2.22607e-06
-5.02419e-05
3.65887e-06
-0.000103377
-1.72946e-05
-2.94279e-05
5.74485e-05
2.58209e-07
0.000198884
-4.41205e-06
-1.5252e-06
0.000123343
-0.000123547
1.72964e-06
3.45898e-05
-3.6115e-05
-0.000177604
-6.65747e-06
-4.10774e-05
-9.16447e-06
-2.1909e-05
-1.91685e-05
-1.71666e-05
-4.74231e-06
4.8349e-06
-8.8145e-05
-2.00665e-05
-2.4593e-05
-0.000141479
-0.000756497
0.000897976
6.072e-05
-3.27149e-06
8.98381e-05
-2.9118e-05
-5.16412e-05
0.000199598
-4.56758e-07
-4.22324e-07
0.000120573
3.19156e-06
3.41674e-05
-0.000153316
-3.34522e-05
-9.63139e-05
-7.61705e-05
-4.39848e-05
-6.94958e-05
2.21551e-05
-2.68974e-05
3.45677e-06
-7.68241e-05
-1.47776e-05
-2.11362e-05
-0.000390676
0.000705378
-0.0010712
-0.000953909
0.00185189
0.000217052
-2.07252e-05
0.000293728
-0.000105794
-0.000148589
-3.59044e-06
0.000106939
1.72249e-05
3.0577e-05
-0.000116435
9.46054e-05
2.72885e-05
-5.41859e-05
-2.77604e-07
-3.90906e-07
-7.61556e-05
-2.14138e-05
0.00135493
-0.00160346
-0.000107484
0.00195937
-4.16529e-06
9.28742e-05
1.823e-05
2.64117e-05
-0.000198013
0.000108867
-6.59412e-05
1.17553e-05
0.00161603
-0.000368588
0.00199296
-3.35888e-05
-2.8557e-06
8.0132e-05
1.55979e-05
2.3556e-05
-6.82636e-05
2.32244e-06
-0.000228842
4.25838e-05
0.00199105
1.90963e-06
0.00171142
-0.000128976
-5.42446e-06
2.96377e-05
5.59188e-05
1.81315e-05
-6.769e-05
-5.73875e-07
-0.000233012
6.49218e-06
-1.64461e-08
-0.000112382
0.000108944
3.45363e-06
-3.15662e-05
3.15498e-05
0.00196113
2.99164e-05
0.00173162
-1.82941e-05
-0.00180573
0.00095013
0.000855597
-6.82505e-05
5.60457e-07
0.00191699
4.41436e-05
0.00187819
3.88002e-05
7.2462e-05
0.000156766
0.000793364
9.93928e-05
5.73732e-05
3.11423e-05
-0.000233733
1.48002e-07
-4.12307e-07
-0.000113124
1.15448e-06
-3.19785e-05
0.00171204
4.9503e-05
-0.000171979
-7.87473e-06
4.15471e-05
0.000138306
-0.00136395
0.000783639
0.00143591
-0.000244775
1.16025e-05
0.00167151
8.4665e-05
0.00158412
0.000126195
0.000292632
0.000416297
0.00116071
0.000321941
0.000151729
0.000108308
-8.59002e-08
-0.000112026
-1.01151e-06
-3.20641e-05
-0.00017948
-1.51402e-06
9.01544e-06
-5.32871e-05
4.54124e-05
4.77877e-07
-0.000109919
-2.58493e-06
-3.15861e-05
-0.000164354
4.63713e-06
-1.97633e-05
-5.48011e-05
1.66125e-06
-9.97368e-05
-1.18438e-05
-2.99248e-05
-0.000142511
7.19288e-06
-2.90355e-05
-5.0164e-05
7.86472e-06
-4.25099e-05
-6.50917e-05
-2.20601e-05
-0.000127554
4.22667e-06
-1.91844e-05
-4.29711e-05
3.91996e-06
-2.01397e-05
-0.000111334
-3.87445e-05
-3.48245e-05
0.000501755
-0.000416869
-0.00013973
0.000208045
0.000362025
0.000132811
-0.000957357
0.000520326
0.000437032
-0.000538505
-0.000418852
-0.000667561
0.000371599
0.000295961
-0.000147235
-0.000750001
0.000211496
-0.000121659
-0.000628342
-0.000367759
0.0002461
0.000210721
-0.00062759
-0.000643903
0.000854624
-0.00106276
4.16025e-05
-0.000669944
-0.00102115
-0.000588323
-0.000100976
-0.000568968
-0.000372455
-0.000473431
-0.000415851
0.000548662
-0.000800798
0.00123783
-5.3826e-05
0.000115796
0.00112203
0.000487395
0.000455359
9.9237e-05
0.000388158
0.000423091
-0.00012713
0.000522328
-0.000471167
0.000344037
-0.000618402
-0.000406906
-0.000160806
3.64445e-05
0.000213598
-0.000801921
-0.000807554
-0.00137652
-0.000797223
-5.82065e-05
-0.00131832
-0.000479442
-0.000537649
-0.000241633
0.000696992
0.0008804
0.00126856
0.000653445
0.000241834
0.00102672
0.000404938
0.00011739
0.000646771
0.000184375
0.000159662
0.000301765
3.6115e-05
0.000121068
-0.00091829
-0.00119725
-0.000921047
2.97319e-05
-0.00122698
-0.000554943
-0.000525211
-0.000169704
0.000823149
0.000857021
0.000818737
0.000442083
0.000204689
0.0012991
0.000303495
0.000508184
1.38844e-05
-0.000934931
-0.0012131
-0.000941589
-0.00127475
6.1657e-05
-0.000832287
-0.000442466
-0.000545278
-0.000483621
0.00078181
3.69272e-05
0.000781353
0.00131182
-1.27212e-05
0.00134875
0.000511375
0.000498654
-0.000330186
-0.000611403
-0.00116247
-0.000947827
-0.000214645
-0.000644855
-0.000391715
-0.000556112
0.000397365
-0.00061201
-0.000700111
0.000257645
-0.000302746
-0.000498399
-0.000240754
0.000919937
-0.000138584
0.000899212
0.0014244
-7.56508e-05
0.00128582
0.000515879
0.000440228
0.000308826
-0.000460171
0.000151345
-0.000303184
-0.000694899
-0.000135474
-0.000324698
0.000352816
-0.000428986
-0.00029204
-0.000848152
6.113e-05
-0.000909282
-0.000633769
-0.000127667
-0.000301319
-0.000197163
-0.000102557
-0.00039291
9.01639e-05
-0.000241565
-0.000241145
-0.000150981
-0.000160711
-8.08543e-05
-0.000296184
-0.000134317
-0.000161867
0.00144146
-0.00159005
0.0020058
-0.00056434
0.000934598
-0.000668862
0.000856598
4.26141e-05
0.000750804
-0.000839242
-0.000832786
0.0008754
0.00135278
-6.69663e-05
0.000519999
0.000458458
0.000391492
0.000559185
-0.00139843
0.00139333
-0.000834142
0.000495427
-0.000629744
-0.00017073
-0.000463039
0.000100479
-0.000401798
0.000808803
-0.00127184
-0.000504356
-0.000438601
-0.000191144
-0.000395489
-0.00053208
9.34793e-05
2.3909e-05
-0.000555989
-0.00024855
9.75694e-05
-0.000329405
0.000491272
-0.000397792
-2.14138e-05
-0.00224377
0.00167943
-0.000850444
0.00101057
-0.00073992
-0.000110523
0.00064198
0.00124745
-0.000372054
-0.000150973
0.000656838
-0.000136839
0.000284784
0.00040709
0.00027025
0.0005165
-1.82059e-05
-0.000498294
-8.49296e-05
-0.000749212
-0.00082485
-0.00030835
0.000306922
-0.000457895
-0.00044229
-0.000866944
-0.000404898
-0.00105809
-0.00103418
-0.000800387
-0.000757803
-8.54214e-05
-0.000948758
-0.000499509
-5.64796e-05
-0.000584931
-0.000257298
-0.000140494
-0.000313778
-3.15498e-05
-0.000728318
0.000617795
-0.000746524
0.00125978
0.0011308
-0.000290284
-0.000456241
0.000485434
-0.000775718
0.000492332
-0.000207548
3.4437e-05
0.000730299
-0.000244865
0.000232005
0.000299888
9.23404e-05
0.000339924
-0.000107919
3.15739e-05
0.000227256
-0.000192819
-0.000215035
-0.000183461
-0.000378954
0.000134089
-0.000122319
-0.000826439
-0.000880121
-0.000873629
-0.000443623
-0.000141308
-0.00127006
-0.000310324
-0.000451632
0.000184672
-0.000640912
0.00131547
0.00129718
-0.00043875
-0.000336968
-0.00107966
-0.000337407
-0.000674374
0.000166391
-7.40503e-05
-2.6428e-05
-0.000209889
0.000317807
-0.000183719
1.81315e-05
-4.54124e-05
-0.000929214
5.55851e-05
-0.000929066
-0.00123068
-3.93797e-05
-0.0011751
-0.000450477
-0.000489857
0.00128172
1.54612e-05
0.00133122
-0.00101689
-6.27755e-05
-0.00100143
-0.000665359
-0.000728135
0.00117282
0.000263091
0.00233352
-0.000915866
-1.32005e-05
-0.000904263
-0.00102784
-0.000147259
-0.00104104
-0.000490869
-0.000638127
0.00132589
5.32834e-06
0.00141056
-0.00113248
0.000131059
-0.00112716
-0.000747898
-0.000616839
0.0011391
-0.000846471
0.00140219
-0.000899256
-5.00734e-06
-0.000790948
0.00126339
0.000147167
0.00138958
0.000543112
-0.00181155
0.0010206
-0.000673705
0.0020759
-0.00165982
0.00110503
-8.44271e-05
0.000866491
-0.000871498
-0.00124807
0.000207028
-0.000381576
-0.000640713
-0.000433685
0.000630053
-0.000482886
-0.00120433
7.71716e-05
-0.000574275
-0.000645874
-0.000568702
-0.000299089
0.000842201
0.00177681
0.00116834
-6.33109e-05
0.00029684
-0.000838277
0.000355391
3.92407e-06
0.00078337
0.00099344
0.000698943
0.000444321
0.000254622
0.00038101
-0.000646979
0.000265403
-0.00035014
-0.000445529
-0.000180126
-0.00077139
0.000197115
-0.000415999
-0.000587887
-0.000390772
-0.000590247
0.000594171
0.000403193
-0.000491788
0.000141648
-0.000110777
-0.000633118
0.000217118
-3.89464e-05
-0.000311088
0.000200311
-5.64668e-05
0.000346726
-0.000222635
-8.09875e-05
-0.000410911
-0.000193793
-0.000339951
0.000146158
-0.000168139
8.71517e-05
3.2172e-05
-0.000378898
-2.20601e-05
3.48245e-05
)
;

boundaryField
{
    movingWall
    {
        type            calculated;
        value           uniform 0;
    }
    fixedWalls
    {
        type            calculated;
        value           uniform 0;
    }
    frontAndBack
    {
        type            empty;
        value           nonuniform List<scalar> 0();
    }
    defaultFaces
    {
        type            empty;
        value           nonuniform List<scalar> 0();
    }
}


// ************************************************************************* //
