/*--------------------------------*- C++ -*----------------------------------*\
  =========                 |
  \\      /  F ield         | OpenFOAM: The Open Source CFD Toolbox
   \\    /   O peration     | Website:  https://openfoam.org
    \\  /    A nd           | Version:  8
     \\/     M anipulation  |
\*---------------------------------------------------------------------------*/
FoamFile
{
    version     2.0;
    format      ascii;
    class       volVectorField;
    location    "0.077";
    object      U;
}
// * * * * * * * * * * * * * * * * * * * * * * * * * * * * * * * * * * * * * //

dimensions      [0 1 -1 0 0 0 0];

internalField   nonuniform List<vector> 
656
(
(0.743372 0.0565316 -9.65461e-25)
(0.927889 0.0140691 1.86666e-24)
(0.954788 -0.00127375 0)
(-0.0910749 0.118994 2.40002e-23)
(0.556742 0.0977245 1.12098e-23)
(0.841242 0.000939746 0)
(-0.0571798 0.0672276 -4.93901e-23)
(-0.0145962 0.018846 9.85105e-24)
(0.968227 -0.000150838 0)
(-0.000504625 0.138601 -2.37829e-24)
(-0.00304956 0.193131 -7.83496e-23)
(-0.117738 0.172053 0)
(0.376006 0.139834 1.00526e-23)
(0.715019 0.00930685 0)
(0.890989 0.00127447 -1.70667e-22)
(0.906566 0.000583083 4.77897e-23)
(0.00104044 0.0823433 9.70499e-24)
(0.00137428 0.0267217 0)
(0.971852 -7.63401e-05 -3.43356e-23)
(0.913661 0.000298527 -1.43718e-22)
(-0.0123884 0.0928735 7.71106e-23)
(-0.00523407 0.0628722 0)
(-0.0239222 0.125115 1.33362e-24)
(-0.00789611 0.242543 1.53982e-22)
(-0.136115 0.223437 -1.67658e-22)
(0.210343 0.18042 -2.26587e-23)
(0.577674 0.0245875 0)
(0.8007 0.00637689 2.66449e-22)
(0.829493 0.00303214 -8.91622e-23)
(-0.00144234 0.0356646 0)
(-0.000151562 0.0114448 0)
(0.916985 0.000158332 5.13466e-23)
(0.973373 -4.69507e-05 -3.66607e-23)
(0.842958 0.00161732 1.95816e-22)
(0.849422 0.000810375 -5.18088e-23)
(0.854028 6.34293e-05 -1.08889e-22)
(-0.00677975 0.0608907 -1.05381e-22)
(-0.00280708 0.0409243 1.7071e-23)
(-0.0137926 0.0825101 -1.88325e-22)
(-0.0408483 0.158565 -1.577e-22)
(-0.01671 0.28282 1.66501e-22)
(-0.143742 0.269547 -4.77711e-24)
(0.068649 0.217917 4.55153e-22)
(0.433183 0.0474137 0)
(0.696558 0.0162322 0)
(0.739381 0.00802631 -3.6982e-22)
(-0.000821631 0.023028 -5.40253e-24)
(-0.000128819 0.00732302 0)
(0.85494 -0.000883156 1.20144e-22)
(0.919451 2.84371e-05 -2.78104e-23)
(0.974007 -2.02106e-05 4.92917e-24)
(0.759768 0.00435504 0)
(0.769761 0.00218523 0)
(0.776838 0.000151855 -1.06666e-22)
(0.778383 -0.00237207 4.59707e-22)
(0.763623 -0.00604306 0)
(-0.0103745 0.0366044 2.00131e-22)
(-0.00502147 0.0257399 2.95146e-22)
(-0.0020282 0.0165173 -2.87514e-22)
(-0.0250269 0.104803 -1.85263e-22)
(-0.0193443 0.048937 5.84788e-22)
(0.286811 0.079672 -1.32799e-22)
(0.578469 0.0319866 1.75137e-22)
(0.6352 0.0165798 -5.20767e-22)
(-0.000553539 0.00884751 4.53703e-23)
(-6.70901e-05 0.00256182 6.09051e-23)
(0.844858 -0.00224239 -2.5466e-22)
(0.919998 -0.000146378 8.54503e-23)
(0.974686 1.29014e-05 5.47828e-24)
(0.726765 -0.0151977 -1.1679e-23)
(0.66269 0.00911872 0)
(0.676452 0.00466402 1.93316e-22)
(0.68638 0.000386077 2.04132e-22)
(0.688964 -0.0048131 -8.82332e-22)
(0.669705 -0.0125428 2.27279e-22)
(-0.00839886 0.013935 8.88423e-22)
(-0.00405367 0.00913823 -6.83444e-24)
(-0.00182772 0.00550522 0)
(-0.000643617 0.00295309 1.05771e-22)
(0.447786 0.0558277 0)
(0.51695 0.0303675 6.66112e-22)
(-8.9449e-05 0.00127335 -1.00135e-22)
(5.53252e-05 0.000241398 -3.08629e-23)
(0.604784 -0.0240904 4.71814e-22)
(0.820258 -0.00592576 1.49694e-22)
(0.914483 -0.000374921 0)
(0.97503 4.19911e-05 -5.28357e-23)
(0.619969 -0.0302306 -2.88772e-22)
(0.468206 -0.0472379 7.26194e-22)
(0.251478 -0.190757 -8.79082e-22)
(0.550822 0.0170795 0)
(0.568145 0.00874781 4.66272e-23)
(0.581232 0.000991928 -1.45194e-22)
(0.585532 -0.00871525 5.11887e-22)
(0.562572 -0.0231803 -8.69613e-22)
(-0.0147913 0.00626424 3.73777e-22)
(-0.00924727 0.00306673 -3.98854e-22)
(-0.00537233 0.00139793 -1.97735e-22)
(-0.00279652 0.000480322 3.91349e-22)
(-0.00116587 4.38432e-05 4.71301e-23)
(-0.000203197 -6.2062e-05 -2.84976e-23)
(-0.136729 -0.250241 5.90066e-23)
(0.411943 -0.147966 -6.13837e-23)
(0.732777 -0.00901633 -7.95846e-22)
(0.901185 -0.00112446 0)
(0.973746 0.000109577 0)
(0.499716 -0.0539477 5.52147e-22)
(0.325509 -0.0810136 -2.7733e-22)
(0.106281 -0.230035 1.02582e-22)
(-0.141409 -0.298197 1.38428e-21)
(-0.0465807 0.0112551 0)
(-0.0340212 0.00583955 1.86864e-22)
(-0.0235916 0.00285794 -6.59978e-22)
(-0.014988 0.00114532 1.84042e-22)
(-0.0079272 0.000287617 -4.38528e-23)
(-0.00212805 2.17936e-05 -2.72268e-23)
(-0.00754429 -0.289027 0)
(-0.120665 -0.194925 0)
(0.582913 -0.103403 4.88166e-22)
(0.850386 -0.00087868 -3.99584e-23)
(0.970605 0.00020329 -1.0304e-22)
(-0.0155578 -0.332916 -1.64648e-21)
(-0.0760017 0.0100104 0)
(-0.0568625 0.00552747 1.93151e-22)
(-0.0403704 0.00276356 -1.41153e-24)
(-0.0262672 0.00117178 9.5489e-23)
(-0.0142712 0.000360381 -4.48736e-23)
(-0.00411643 7.18041e-05 0)
(-0.0276222 -0.164271 -5.51166e-22)
(-0.00296292 -0.233227 0)
(-0.094997 -0.136206 5.08316e-22)
(0.75789 -0.0597746 0)
(0.956554 0.00135216 7.64118e-23)
(-0.0466786 -0.20509 0)
(-0.098084 0.00828947 0)
(-0.0741662 0.00460884 1.20079e-22)
(-0.0531751 0.00234372 -3.48154e-22)
(-0.0349417 0.00102808 1.12647e-22)
(-0.0192397 0.000345408 5.03485e-23)
(-0.00578431 8.89857e-05 -1.6874e-23)
(-0.0156551 -0.119022 2.82625e-22)
(-0.0145374 -0.123349 0)
(-0.000248252 -0.169216 -4.45517e-22)
(-0.0605237 -0.0776121 4.30418e-22)
(0.931395 -0.0147218 0)
(-0.0284336 -0.148587 0)
(-0.107003 0.00724166 1.53156e-22)
(-0.0809997 0.00408744 -1.47863e-22)
(-0.0581639 0.00207785 1.43074e-22)
(-0.0382907 0.00090595 -2.73889e-22)
(-0.0211549 0.000304634 3.76657e-22)
(-0.00650417 7.8617e-05 -5.02188e-23)
(-0.013357 -0.0678555 2.43769e-22)
(-0.00771823 -0.0890946 -5.22016e-22)
(-0.00596353 -0.0840645 1.52074e-22)
(0.00181253 -0.10077 -4.6198e-22)
(-0.014189 -0.0214027 1.30993e-23)
(-0.0241144 -0.0868467 0)
(-0.0154606 -0.0452117 -5.49847e-23)
(-0.107961 0.00780827 -1.88583e-22)
(-0.0816226 0.00492856 7.60124e-22)
(-0.0586928 0.00264423 -7.25769e-22)
(-0.0387747 0.00113985 0)
(-0.0215131 0.000351527 0)
(-0.00671216 7.2735e-05 -5.50903e-24)
(-0.00849388 -0.0350788 1.17253e-22)
(-0.0066677 -0.0497899 3.44433e-24)
(-0.00302974 -0.060541 3.97954e-22)
(-0.00125805 -0.0475657 -1.49542e-22)
(0.00233743 -0.0310266 0)
(-0.00873764 -0.0196285 8.91156e-22)
(-0.0632746 0.0040911 8.29106e-22)
(-0.0414403 0.00257051 -8.57311e-22)
(-0.0227749 0.000908269 0)
(-0.00700805 0.000157897 -7.76632e-24)
(-0.00480612 -0.0146275 -2.36315e-22)
(-0.00418777 -0.0254828 -9.16754e-23)
(-0.00273018 -0.033291 1.89004e-22)
(-0.00064302 -0.0342498 -1.29325e-22)
(0.000182378 -0.0143648 4.94292e-23)
(-0.00447383 -0.00526394 0)
(-0.00270559 0.00320011 -1.02406e-21)
(-0.0505254 0.00117985 0)
(-0.0176839 0.000393779 -2.7141e-23)
(-0.00152177 0.000803664 0)
(-0.00238116 -0.00358784 -2.4056e-22)
(-0.00234492 -0.0102328 -4.59276e-22)
(-0.00172126 -0.0168616 -6.24875e-23)
(-0.00072437 -0.0186262 1.27155e-22)
(7.65209e-05 -0.010653 -4.96195e-23)
(-0.00107995 -0.000901953 2.0881e-21)
(-0.00130603 0.00154741 2.17905e-21)
(-0.0031075 0.00369302 7.02067e-23)
(-0.000132271 0.00198861 -4.81421e-22)
(-0.000749014 0.00104782 -9.82326e-25)
(-0.00111823 -0.00225117 1.24587e-22)
(-0.000958273 -0.00653607 3.71987e-22)
(-0.000483978 -0.00935074 7.62149e-24)
(-6.56822e-05 -0.00583895 -2.27909e-23)
(-0.000147272 -0.00257492 -1.88338e-24)
(-0.000453166 -0.0014113 -1.74693e-21)
(-0.000547581 0.000678546 -5.26917e-22)
(-0.00136125 0.00157833 0)
(-0.0031935 0.00914277 1.51721e-21)
(0.000389067 0.00150939 -2.58748e-22)
(-4.00665e-06 0.0017643 2.56504e-22)
(-0.000314434 0.00105847 1.28437e-22)
(-0.000440152 -0.001266 0)
(-0.000272099 -0.00350569 -1.2192e-22)
(-6.47712e-05 -0.00293378 1.71268e-23)
(0.000229819 -0.00282331 8.27432e-22)
(1.30462e-05 -0.0024179 3.3375e-22)
(-0.000162121 -0.0014621 1.96693e-22)
(-0.000173873 0.000193078 5.3603e-23)
(-0.0003349 0.000545607 -6.14601e-23)
(-0.000459778 0.0021199 1.09239e-21)
(0.000310124 0.000534555 1.08136e-21)
(0.000248301 0.00126883 -4.0476e-22)
(2.98024e-05 0.00143219 -2.63975e-22)
(-0.000107157 0.000883548 -1.28486e-22)
(-0.000115826 -0.000584133 0)
(-3.96723e-05 -0.00106211 -1.12742e-23)
(0.000527866 -0.00205797 0)
(0.000185015 -0.00240382 -2.86303e-22)
(4.7207e-05 -0.00200844 -9.86499e-22)
(-3.76801e-05 -0.0012144 3.21489e-22)
(-2.21762e-05 -2.84992e-05 -3.58207e-22)
(-1.24956e-05 1.18941e-05 9.65588e-24)
(0.000531852 0.000191973 -4.69797e-22)
(0.000171452 0.000398771 7.16203e-22)
(0.000139468 0.000980308 -6.92981e-22)
(2.7631e-05 0.00103568 1.32346e-22)
(-1.72648e-05 0.000583764 0)
(-1.09996e-05 -0.00014197 1.11475e-23)
(0.000388789 -0.000698551 0)
(0.000316714 -0.00169568 5.50364e-22)
(0.000115024 -0.00187479 7.16438e-22)
(3.78212e-05 -0.00146556 9.39676e-22)
(8.24031e-06 -0.000791146 -3.33798e-22)
(9.77972e-06 -5.50775e-05 -2.20473e-23)
(0.00120491 0.000277189 -5.60812e-22)
(0.000378272 0.000104386 0)
(8.3677e-05 0.000273206 5.14328e-22)
(6.48484e-05 0.000678412 0)
(1.68334e-05 0.000614305 0)
(6.22646e-06 0.000211464 0)
(0.00071846 -0.000234768 6.27185e-22)
(0.000209821 -0.000524359 -5.6927e-22)
(0.00016882 -0.00128727 -5.60026e-22)
(5.82679e-05 -0.00130816 -4.18077e-22)
(2.38477e-05 -0.000871961 -4.34758e-22)
(1.31865e-05 -0.000279308 1.31221e-23)
(0.00168524 0.0001456 0)
(0.00096083 0.000159117 1.40554e-22)
(0.000249684 5.1531e-05 0)
(3.23279e-05 0.000167224 1.98714e-27)
(2.19625e-05 0.000385081 0)
(8.66988e-06 0.000196593 -8.98034e-23)
(0.00183343 -2.66804e-05 0)
(0.00156357 -0.000258145 -5.66058e-22)
(0.000522011 -0.000131874 -1.57989e-22)
(9.93972e-05 -0.000360003 2.91849e-22)
(7.5649e-05 -0.000877164 -4.14964e-22)
(2.45335e-05 -0.00074986 -1.31463e-22)
(1.22914e-05 -0.000280575 9.15683e-23)
(0.00135288 8.23269e-05 -1.88764e-23)
(0.00071521 8.24423e-05 -2.10201e-22)
(0.000149229 2.00272e-05 0)
(6.31545e-06 8.29846e-05 -1.0821e-22)
(5.51556e-06 0.000112599 9.05925e-23)
(0.00147009 -1.80271e-05 2.09891e-24)
(0.00124679 -0.000151815 6.35706e-22)
(0.000352419 -6.60132e-05 -4.72263e-27)
(3.77668e-05 -0.000221094 1.34902e-25)
(2.461e-05 -0.000490374 -2.65275e-22)
(9.49668e-06 -0.000226784 8.36335e-23)
(0.00101734 4.25434e-05 1.4857e-22)
(0.000482974 3.63642e-05 1.02542e-22)
(7.33943e-05 3.85717e-06 -1.26143e-22)
(-1.22061e-06 1.91336e-05 2.30053e-23)
(0.00110542 -1.07169e-05 2.0944e-24)
(0.000930918 -8.12452e-05 -1.40607e-22)
(0.00021578 -2.61284e-05 4.54168e-22)
(7.22315e-06 -0.00011034 -2.12769e-22)
(6.00992e-06 -0.000139047 3.40307e-26)
(0.000695833 1.89683e-05 0)
(0.000271279 1.19784e-05 1.13807e-22)
(1.73624e-05 -1.10228e-06 7.96668e-23)
(0.000756589 -5.78477e-06 0)
(0.000631301 -3.70837e-05 -2.057e-22)
(0.000108893 -5.34107e-06 3.95909e-22)
(-1.46311e-06 -2.55736e-05 4.39588e-23)
(0.000398168 6.50436e-06 -9.70974e-25)
(8.26498e-05 2.82803e-06 -1.43009e-22)
(0.000433458 -2.79544e-06 9.69711e-25)
(0.000356412 -1.2961e-05 -1.14033e-22)
(2.67278e-05 1.18644e-06 1.12934e-22)
(0.000128921 1.65432e-06 4.33797e-23)
(0.000140628 -1.23279e-06 0)
(0.000109463 -3.58735e-06 -1.09967e-23)
(-0.142805 0.304015 2.22384e-21)
(-0.0269626 0.258916 5.09922e-22)
(-0.0419225 0.128297 0)
(-0.0753956 0.189539 2.78623e-21)
(-0.0629117 0.19421 -2.94436e-21)
(-0.0730219 0.268243 0)
(-0.0373496 0.311078 0)
(-0.0980451 0.353175 -1.02569e-21)
(-0.0849301 0.314173 0)
(-0.0388407 0.266567 -1.88531e-21)
(0.152159 0.126701 4.23772e-21)
(-0.0955073 0.278837 0)
(-0.03381 0.0636958 -3.65698e-22)
(-0.0560703 0.10525 0)
(-0.0162073 0.0192658 -3.8181e-21)
(-0.0385988 0.0469831 3.90722e-21)
(-0.0831657 0.121715 -2.27027e-21)
(-0.114795 0.159415 0)
(-0.0954013 0.203483 0)
(-0.119101 0.240239 6.18363e-22)
(-0.10878 0.295516 0)
(-0.0974964 0.289536 1.95869e-21)
(-0.0152744 0.194479 2.36968e-21)
(0.0946772 0.155501 -5.71834e-21)
(0.302808 0.0912262 1.1234e-21)
(-0.149953 0.235268 -5.90025e-22)
(-0.140543 0.252469 0)
(-0.0215699 0.0120702 -3.15874e-21)
(-0.0491876 0.0286521 8.65328e-22)
(-0.0607815 0.0521562 7.20347e-22)
(-0.0913819 0.081873 2.30837e-21)
(-0.121538 0.0806727 -4.445e-21)
(-0.167505 0.115468 -3.93328e-21)
(-0.159415 0.156946 -3.00645e-21)
(-0.184491 0.185494 5.63125e-21)
(-0.130935 0.208745 -1.64175e-21)
(-0.0600032 0.184082 -1.71406e-21)
(0.0433079 0.128477 0)
(0.387486 0.0504148 -5.74685e-21)
(0.190367 0.106436 0)
(0.423921 0.0298122 0)
(0.243695 0.0593215 4.83684e-21)
(-0.206809 0.172878 0)
(-0.178849 0.179868 0)
(-0.0108488 -0.277364 6.03709e-21)
(-0.146115 -0.330368 0)
(0.386537 -0.0835101 0)
(0.436595 0.014832 -1.97023e-22)
(0.27359 0.0341725 0)
(0.269511 -0.094439 0)
(0.456521 -0.0376434 1.1832e-21)
(0.458419 0.00179044 3.69632e-21)
(0.296569 0.00855087 0)
(0.320009 -0.044247 0)
(0.473844 -0.0152631 0)
(0.325084 -0.01492 -3.75314e-21)
(-0.0639563 0.0225516 1.14953e-21)
(-0.097419 0.0360226 -1.44531e-21)
(-0.120521 0.0485924 4.75468e-21)
(-0.173507 0.0548058 0)
(-0.202302 0.0851136 0)
(-0.23169 0.0954711 -3.10481e-21)
(-0.249596 0.120082 -2.36309e-21)
(-0.152319 0.1392 0)
(0.0674762 0.0804161 3.34717e-21)
(-0.0352874 0.118032 0)
(0.151941 0.0435624 0)
(0.00479174 0.0682033 -3.61973e-21)
(-0.267031 0.106386 7.84728e-21)
(-0.228673 0.113309 -2.31887e-21)
(-0.0112133 -0.264234 -3.40716e-21)
(0.172349 -0.137729 7.67052e-21)
(0.147208 -0.156981 -6.00213e-21)
(-0.114829 -0.387004 1.70474e-21)
(-0.0771468 -0.329034 -3.71049e-21)
(-0.0361756 -0.360383 2.43751e-22)
(0.0477199 -0.183751 -6.36435e-21)
(0.0511263 -0.15393 2.08615e-21)
(0.149719 -0.110149 3.22716e-21)
(0.133992 0.0100543 0)
(0.0258801 0.0381229 0)
(0.0865019 -0.0943319 -3.55658e-21)
(0.189478 -0.0572672 0)
(0.101083 -0.0463 -3.31619e-21)
(0.200525 -0.0211022 3.02412e-21)
(0.0615237 -0.00977773 4.60934e-21)
(-0.0973006 0.01616 1.65292e-21)
(-0.141107 0.0248619 0)
(-0.16821 0.0343262 0)
(-0.21358 0.0401062 3.28342e-21)
(-0.245116 0.0588352 0)
(-0.274292 0.0598873 8.26243e-21)
(-0.29449 0.0759726 -7.06128e-21)
(-0.108264 0.0542647 0)
(-0.132029 0.0690145 -5.67659e-21)
(-0.22272 0.0874023 1.15629e-20)
(-0.195127 0.0400514 0)
(-0.2925 0.0752897 -7.47359e-21)
(-0.306168 0.0691343 -3.98624e-21)
(-0.0857022 -0.315043 0)
(-0.0705461 -0.248571 7.72745e-21)
(-0.0719286 -0.243748 0)
(-0.0639348 -0.323043 -5.27585e-22)
(-0.0899627 -0.326028 4.14361e-22)
(-0.10217 -0.242414 -7.93624e-21)
(-0.0603484 -0.188502 -7.29073e-21)
(-0.0903704 -0.162636 9.69496e-21)
(-0.0371878 -0.116155 2.98967e-21)
(-0.103654 -0.0834633 -3.91715e-21)
(-0.050044 -0.0527865 0)
(-0.0772314 -0.0178766 -3.18619e-21)
(-0.172133 0.0108909 0)
(-0.12347 0.0131836 0)
(-0.167778 0.0198113 -1.28102e-21)
(-0.198092 0.0256498 -5.01981e-21)
(-0.232515 0.0320166 4.30491e-21)
(-0.261241 0.0426957 -1.53212e-21)
(-0.2797 0.0448603 -1.96662e-21)
(-0.307505 0.056788 6.2275e-21)
(-0.277592 0.0468733 -6.94646e-21)
(-0.301048 0.0619439 8.46948e-21)
(-0.26402 0.0155205 0)
(-0.298745 0.0397515 -1.19024e-21)
(-0.32116 0.0618746 0)
(-0.314353 0.0565589 0)
(-0.0467888 -0.174287 -1.23694e-20)
(-0.0894361 -0.248988 4.26681e-21)
(-0.109883 -0.258984 5.15499e-21)
(-0.121756 -0.288635 -7.10461e-22)
(-0.137732 -0.259299 6.55441e-22)
(-0.172238 -0.210021 -7.46635e-21)
(-0.174975 -0.170579 0)
(-0.195624 -0.112954 -9.32943e-21)
(-0.28127 0.0178883 -4.39169e-21)
(-0.237524 -0.0819584 6.78737e-21)
(-0.273983 -0.0184085 2.80128e-21)
(-0.135492 0.0115876 4.51754e-21)
(-0.294659 0.0530423 2.69734e-21)
(-0.173481 0.0179225 -3.22749e-21)
(-0.198932 0.0232801 -2.79435e-21)
(-0.226289 0.0312857 -6.05199e-21)
(-0.2615 0.0397355 1.35423e-21)
(-0.270889 0.0439389 -3.43184e-21)
(-0.294268 0.0460149 -2.69921e-21)
(-0.318229 0.0607625 6.7278e-22)
(-0.313219 0.051545 1.23266e-21)
(-0.274828 0.0591548 4.81692e-21)
(-0.291142 0.0568372 1.99653e-21)
(-0.301946 0.0645154 -1.27922e-21)
(-0.294108 0.0611401 -1.91857e-21)
(-0.242401 0.0645842 -6.67712e-21)
(-0.0389563 -0.105077 0)
(-0.062501 -0.165979 8.27744e-21)
(-0.183061 0.0661178 0)
(-0.22144 0.055557 4.37741e-21)
(-0.120768 0.0615323 8.47729e-21)
(-0.146566 0.0581645 -5.59776e-21)
(-0.0860438 -0.181437 0)
(-0.125149 -0.221301 -4.90037e-21)
(-0.162281 -0.19865 1.5002e-20)
(-0.219418 0.0286086 -5.83721e-21)
(-0.245514 0.00874113 4.6204e-21)
(-0.17957 -0.1573 -1.06991e-20)
(-0.230488 -0.0769372 1.13788e-22)
(-0.222379 -0.0475229 -9.42586e-21)
(-0.135735 0.0117703 0)
(-0.266235 0.0527939 0)
(-0.245163 0.0395931 2.59671e-22)
(-0.250746 0.0463399 -3.54416e-22)
(-0.169203 0.020098 -5.0225e-21)
(-0.197271 0.0263303 5.34144e-21)
(-0.215693 0.0314392 4.63403e-21)
(-0.284828 0.0701624 1.83082e-21)
(-0.276862 0.0697426 -4.16908e-22)
(-0.247377 0.0774234 3.63317e-21)
(-0.228221 0.0764733 1.32583e-21)
(-0.259217 0.0572818 -5.47574e-21)
(-0.264824 0.0718933 1.99906e-23)
(-0.27159 0.0638626 4.67547e-21)
(-0.201404 0.0821074 2.29948e-21)
(-0.176494 0.0804215 -7.50234e-21)
(-0.119848 0.0731897 2.88289e-21)
(-0.145054 0.080617 2.3815e-21)
(-0.0957017 0.0709106 -3.36804e-21)
(-0.0575602 0.0524394 0)
(-0.0759341 0.0589745 2.79832e-21)
(-0.0918629 0.0547473 -2.40034e-22)
(-0.0834198 0.0470336 0)
(-0.0249309 -0.0547162 -4.19628e-21)
(-0.0490739 -0.0950075 4.10557e-21)
(-0.0595038 -0.102582 2.88711e-21)
(-0.0951202 -0.138287 0)
(-0.107698 0.0317498 1.0204e-20)
(-0.14113 0.0342248 0)
(-0.168889 0.0188857 5.66236e-21)
(-0.121303 -0.116492 1.30633e-22)
(-0.152634 -0.0268237 1.53358e-21)
(-0.151432 -0.12432 -4.2194e-21)
(-0.179973 -0.0561331 8.46574e-21)
(-0.0139517 -0.0251641 -4.96204e-22)
(-0.0255711 -0.0430813 0)
(-0.125999 0.0107807 0)
(-0.0850545 0.0038396 -5.14555e-22)
(-0.102852 0.00502726 5.18701e-22)
(-0.223797 0.0441733 -3.00819e-21)
(-0.234474 0.0542585 2.6453e-21)
(-0.150071 0.0166027 0)
(-0.1849 0.0256318 -2.45618e-21)
(-0.201136 0.0351523 2.95874e-21)
(-0.199197 0.0864258 1.24116e-21)
(-0.239272 0.0767334 -2.0177e-21)
(-0.232754 0.0817334 -2.56043e-21)
(-0.218722 0.0602154 -3.40901e-21)
(-0.219063 0.071639 6.76e-22)
(-0.176333 0.084296 0)
(-0.148078 0.0843809 0)
(-0.134577 0.0828064 0)
(-0.107073 0.0793757 -2.97557e-21)
(-0.0874816 0.0727816 -1.67581e-21)
(-0.0674334 0.0661543 3.98956e-21)
(-0.050521 0.0542381 0)
(-0.00780759 0.0145292 0)
(-0.00499989 0.00961184 -6.67875e-22)
(-0.0142635 0.025981 3.59745e-21)
(-0.022859 0.0350496 -3.15358e-21)
(-0.0363417 0.047142 0)
(-0.0258657 0.032905 -5.85682e-21)
(-0.0393707 0.0403101 3.75467e-23)
(-0.0107514 0.0154337 0)
(-0.0146962 0.0201764 -4.59984e-21)
(-0.00493181 0.00587164 0)
(-0.0416656 0.0354699 1.35497e-23)
(-0.0597412 0.0401189 2.05745e-23)
(-0.0589207 0.030433 3.5559e-21)
(-0.0924712 0.0259499 -4.32545e-21)
(-0.0363776 -0.047941 8.81292e-21)
(-0.0604532 -0.0669754 -1.85481e-20)
(-0.0881982 -0.0672097 3.95111e-21)
(-0.0877658 0.00901442 -2.28003e-21)
(-0.0965918 -0.0379629 8.37686e-21)
(-0.117167 -0.0226093 -5.88531e-21)
(-0.00689901 -0.0070852 0)
(-0.0130799 -0.0154586 0)
(-0.016195 -0.0167631 -3.64655e-21)
(-0.0323191 -0.0283261 -5.33373e-21)
(-0.00421432 0.00680643 5.65152e-22)
(-0.117798 0.0104115 1.25359e-21)
(-0.0697765 0.000823958 0)
(-0.0874955 0.00282339 -1.09679e-21)
(-0.146692 0.0292939 1.49047e-21)
(-0.173546 0.0375312 -4.45784e-21)
(-0.189321 0.0550434 -8.10623e-23)
(-0.162306 0.0678439 4.04892e-21)
(-0.181556 0.0761188 -4.75264e-21)
(-0.169053 0.0814995 3.23333e-21)
(-0.0990689 0.079138 -3.93071e-21)
(-0.128474 0.0781506 6.07468e-23)
(-0.125909 0.0828328 1.11158e-21)
(-0.0371291 0.0531401 4.04605e-21)
(-0.0566175 0.0645284 -4.42122e-23)
(-0.0786151 0.071806 1.95872e-21)
(-0.0111584 0.0273574 1.76763e-21)
(-0.0273544 0.044889 -2.14113e-21)
(-0.00630988 0.0177583 -1.58879e-21)
(-0.0165678 0.0185375 5.23521e-21)
(-0.0262042 0.0239877 0)
(-0.00503991 0.00498439 4.11262e-21)
(-0.00739691 0.00750653 -7.26835e-21)
(-0.00222714 0.000334409 0)
(-0.00222352 0.000331 0)
(-0.00450492 -0.002155 -1.1554e-21)
(-0.0267785 0.0194234 5.24229e-21)
(-0.041333 0.0217593 -1.58174e-23)
(-0.0412627 0.0142451 -1.0782e-20)
(-0.0632433 0.00757416 1.0884e-20)
(-0.0389537 -0.017933 3.80771e-21)
(-0.0543213 -0.0178019 -3.09013e-21)
(-0.047929 -0.00261561 -3.8081e-21)
(-0.00654652 -0.00306606 7.17178e-22)
(-0.0130952 -0.00712661 2.03319e-21)
(-0.0214417 -0.00661865 1.40881e-21)
(-0.00507053 0.013451 -3.05319e-21)
(-0.0292662 0.0495587 0)
(-0.0616425 0.0639592 0)
(-0.0931514 0.0360243 3.94698e-21)
(-0.108834 0.0553728 -2.76841e-21)
(-0.101068 0.0672011 0)
(-0.0222618 0.00259965 3.06215e-23)
(-0.0626304 0.014812 0)
(-0.0100251 0.0309559 -1.03652e-22)
(-0.000829015 0.00176074 -6.08664e-22)
(-0.000217407 0.00204791 2.99376e-21)
(-0.00929331 0.00687133 7.49975e-21)
(-0.0147069 0.0105699 0)
(-0.00154171 -0.000792196 -3.39871e-21)
(-0.00344464 0.000626358 -1.07878e-20)
(-0.000489109 -0.00230103 5.95604e-21)
(-0.00139567 0.00147316 4.21849e-22)
(-0.00537886 -0.000676828 0)
(-0.0158967 0.00597473 0)
(-0.0257702 0.00784294 0)
(-0.028267 0.000492619 0)
(-0.00745183 -0.000585145 4.81293e-21)
(-0.0162907 -0.00291883 -4.11251e-21)
(-0.0185714 0.00057444 0)
(-0.00132101 0.00993798 0)
(-0.00040982 0.00166517 2.7225e-21)
(0.000579921 0.0016676 -6.82893e-21)
(0.000651577 0.00195369 1.18869e-20)
(0.000635192 0.001781 -7.18397e-21)
(0.000874533 0.001226 -2.33877e-21)
(0.000468589 0.000635343 0)
(-0.00314135 -8.83941e-05 3.51873e-21)
(-0.0066923 0.00129216 0)
(0.000156629 -0.00293361 0)
(-0.000223184 -0.00243846 0)
(0.000225419 -0.00302152 -1.29476e-21)
(-0.000777904 0.00109838 2.23582e-21)
(-0.00308735 0.000834184 0)
(-0.00238743 0.000434731 6.7685e-21)
(-0.00463149 0.000682766 1.79024e-21)
(-0.00598425 0.00148018 -6.75078e-21)
(0.00115981 0.00146257 0)
(0.000773078 0.00130125 5.27913e-21)
(0.0012407 0.00106984 8.56215e-21)
(0.00148943 0.00124952 -9.71162e-21)
(0.000673365 0.000345416 -1.74315e-22)
(0.00121888 0.000655409 7.23279e-21)
(0.000781986 -0.00231828 1.45299e-21)
(0.00020442 -0.00132501 -1.08956e-21)
(0.000750105 -0.0022957 -8.36622e-21)
(0.000953907 -0.00268507 1.14318e-20)
(0.00119836 -0.00254052 0)
(0.00133446 0.000952851 -5.358e-21)
(0.000533425 0.000832072 -7.84285e-21)
(0.00171949 -5.39512e-06 1.1628e-20)
(0.00158718 -0.0010203 0)
(0.00107239 -0.00147796 0)
(0.000583456 -0.000819777 4.46026e-21)
(0.0019701 0.000841412 3.35733e-21)
(0.00209709 0.000794549 -5.95496e-21)
(0.00144386 0.000457959 -1.30425e-22)
(0.00190895 0.000597199 1.78945e-24)
(0.00157967 -0.00134319 0)
(0.00194927 -0.00163172 1.9505e-21)
(0.00220203 -0.00110335 -1.68503e-21)
(0.00255636 0.000271525 -4.16419e-24)
(0.00245981 -0.000550747 7.99862e-22)
(0.00247517 -0.00012033 6.3224e-21)
(0.000882289 -0.000391469 -5.91227e-21)
(0.00160471 -0.000760901 0)
(0.00201879 0.000250917 -8.83113e-21)
(0.00244929 0.000199176 4.21039e-21)
(0.00220488 -3.67111e-05 4.48369e-21)
(0.00189681 -0.000437379 0)
(0.00231287 -0.000458284 -4.91228e-21)
)
;

boundaryField
{
    movingWall
    {
        type            fixedValue;
        value           uniform (1 0 0);
    }
    fixedWalls
    {
        type            noSlip;
    }
    frontAndBack
    {
        type            empty;
    }
    defaultFaces
    {
        type            empty;
    }
}


// ************************************************************************* //
