/*--------------------------------*- C++ -*----------------------------------*\
  =========                 |
  \\      /  F ield         | OpenFOAM: The Open Source CFD Toolbox
   \\    /   O peration     | Website:  https://openfoam.org
    \\  /    A nd           | Version:  8
     \\/     M anipulation  |
\*---------------------------------------------------------------------------*/
FoamFile
{
    version     2.0;
    format      ascii;
    class       surfaceScalarField;
    location    "0.074";
    object      phi;
}
// * * * * * * * * * * * * * * * * * * * * * * * * * * * * * * * * * * * * * //

dimensions      [0 3 -1 0 0 0 0];

internalField   nonuniform List<scalar> 
1107
(
0.000315988
-0.000643388
0.000633494
-0.000306094
0.000616968
-0.00030098
-2.96871e-05
0.000646655
0.000304962
0.000538556
-0.000106654
-0.000736865
-0.000968718
0.000630292
-9.76567e-05
0.000701464
0.000286064
-5.36018e-05
-1.49161e-05
-3.72723e-05
0.000683927
-3.30509e-05
1.43465e-05
-8.79496e-05
0.000180752
-0.000148833
-6.49694e-05
0.000300272
-0.000856385
-0.00126768
0.000599238
-0.000207466
0.000740101
0.000760967
-9.67757e-05
4.17076e-05
0.000814911
-9.56517e-05
3.58077e-06
-4.28359e-05
-1.13353e-05
0.000725635
0.000853068
2.99215e-05
-6.80781e-05
6.4473e-05
-0.000126751
-8.65554e-05
2.51488e-05
-4.86253e-05
0.000227395
-0.000140758
-0.000213387
0.000277847
-0.000115422
0.000296552
-0.00087509
-0.00151061
0.000539474
-0.000366498
0.00075827
0.000828766
-0.000185441
0.000899229
-0.000166115
5.21559e-06
-2.29026e-05
-6.11975e-06
-2.22925e-05
0.000865049
1.03116e-05
0.000755556
0.000946173
-0.000115022
0.000963474
-3.95938e-05
0.000951859
-2.38975e-05
3.55135e-05
3.54042e-05
-7.27549e-05
-4.92047e-05
1.3622e-05
-2.68431e-05
-8.23997e-05
-0.000131114
0.000322167
-0.000215173
-0.000320381
0.000397171
-0.000190426
0.000306686
-0.000784605
0.000459871
-0.00166379
-0.000570355
0.000743331
0.000880865
-0.000308037
0.000968443
-0.000253693
2.99797e-06
-1.22786e-05
-3.12178e-06
8.8159e-05
0.000916901
-5.3202e-05
0.000853471
-1.23193e-05
0.000765868
0.00102611
-0.00017269
0.00105048
-6.39622e-05
0.00103965
4.63475e-05
0.000999435
0.00012837
-0.000118507
0.000932828
0.000185114
5.74525e-05
-0.000104205
-3.56471e-05
2.76046e-05
-1.93568e-05
1.0414e-05
-9.6525e-06
-0.00012977
-0.000216517
-6.19166e-05
-0.000172058
0.000691201
-0.000801685
0.000902305
-0.00046701
0.0010109
-0.000362289
2.20818e-06
-4.0727e-06
-9.13598e-07
0.000865653
-6.7259e-05
0.000823939
-2.36708e-05
0.000753549
0.000822858
-0.000147401
0.00025737
0.00107959
-0.000241376
0.00111069
-9.50647e-05
0.00110238
5.46581e-05
0.00105828
0.000172471
0.000974508
0.000268885
4.5651e-05
-3.06062e-05
-7.69615e-05
2.44411e-05
-1.44373e-05
1.14679e-05
-6.38361e-06
4.27932e-06
-2.46389e-06
0.000877237
-0.000653046
0.00100527
-0.000490317
8.82559e-07
-6.75947e-07
-3.10391e-08
0.00033414
0.000670017
-0.000181299
0.000790609
-7.23564e-05
0.000785615
-2.8935e-05
0.000729878
0.000827239
0.000404639
0.00062268
0.000538699
0.000388297
-0.00129506
0.00152945
0.00108447
-0.000320577
0.00112434
-0.000134935
0.00112315
5.5841e-05
0.00107775
0.000217872
0.000975221
0.000371416
-3.5871e-05
-5.57969e-05
6.10617e-05
-1.92678e-05
-3.10404e-05
-9.09216e-06
-1.65593e-05
-3.37983e-06
-8.17622e-06
-6.70584e-07
-3.3852e-06
-7.01623e-07
0.000988002
0.000345408
-0.000945112
0.000371511
-0.000996559
0.00068805
-7.87398e-05
0.000739102
-2.58425e-05
0.000700943
0.000793478
0.000586383
0.000547563
0.000784614
0.000411894
0.00166512
0.00048336
0.000916536
-5.78824e-05
-9.54247e-05
9.75102e-05
-3.1331e-05
-5.75918e-05
-1.47863e-05
-3.31039e-05
-5.47329e-06
-1.74892e-05
-1.09569e-06
-7.7628e-06
-1.79731e-06
0.00010145
0.000300662
-5.67039e-05
0.000227766
-0.000801368
0.000357808
-0.000666317
0.000680878
-2.05161e-05
0.0006751
0.000415902
0.000168908
-4.46237e-05
-0.000125339
7.45383e-05
-2.45267e-05
-7.76888e-05
-1.18009e-05
-4.58297e-05
-4.48903e-06
-2.48011e-05
-9.73157e-07
-1.12787e-05
-2.77047e-06
0.000246474
0.000202969
-0.000148782
0.000201333
-3.02712e-05
0.000136231
-0.00057979
0.000342994
-0.000328433
0.000654584
0.000297733
0.000364643
-1.4759e-05
-0.000134213
2.36329e-05
-8.36354e-06
-8.40843e-05
-4.13898e-06
-5.00543e-05
-1.66025e-06
-2.72798e-05
-4.05075e-07
-1.25338e-05
-3.17554e-06
0.000150017
0.000136498
-8.35458e-05
0.000129097
-7.65454e-05
0.000120989
-1.50288e-05
7.00075e-05
-0.000306804
0.000326151
0.000201933
0.000245817
1.39946e-05
-0.00012256
-2.56479e-05
7.11141e-06
-7.72011e-05
3.16884e-06
-4.61117e-05
1.11799e-06
-2.5229e-05
1.79609e-07
-1.15955e-05
-2.99593e-06
0.000129934
7.89208e-05
-7.23574e-05
8.5994e-05
-4.0443e-05
7.41979e-05
-2.97547e-05
5.93499e-05
-4.37115e-06
1.93473e-05
0.000120004
0.000211864
-8.92902e-05
6.00051e-05
0.000149289
1.6219e-05
-3.57581e-05
-0.000103021
7.57655e-06
-6.85586e-05
3.23875e-06
-4.17739e-05
1.1687e-06
-2.31589e-05
2.25018e-07
-1.06518e-05
-2.77091e-06
3.85115e-05
-4.88808e-05
4.86393e-05
-3.50027e-05
4.90612e-05
-1.53063e-05
3.54291e-05
-5.8339e-06
1.49761e-05
-5.23105e-05
2.40098e-05
8.83058e-05
-3.18875e-05
5.77105e-05
-6.7597e-05
-1.2559e-05
-4.24873e-05
-2.81545e-06
-2.03953e-05
-5.58636e-06
1.45213e-05
-2.83203e-05
2.31361e-05
-2.33776e-05
2.725e-05
-1.31915e-05
2.32039e-05
-3.08108e-06
9.14221e-06
4.93294e-06
-2.58447e-05
4.49216e-05
-2.07509e-06
7.07149e-06
7.25498e-06
-1.22514e-05
-1.29797e-05
5.60407e-05
-6.34564e-05
-1.8566e-05
-1.93187e-06
-8.23016e-06
1.5095e-05
2.33201e-06
-1.36554e-05
8.21964e-06
-1.34039e-05
1.26568e-05
-8.78435e-06
1.27282e-05
-2.71589e-06
6.06113e-06
1.56663e-06
4.3832e-06
-8.02492e-06
-4.9832e-07
3.47009e-06
4.0997e-06
-1.88921e-06
8.48007e-06
-1.68604e-05
1.02696e-05
-3.10572e-06
-3.36087e-07
1.50993e-06
-1.79478e-06
-4.10337e-06
8.97108e-07
-6.33284e-06
4.2455e-06
-4.99262e-06
5.7949e-06
-1.85103e-06
3.34524e-06
3.51075e-06
1.70764e-06
-3.65176e-06
1.67782e-06
2.20704e-06
1.17988e-07
1.46289e-06
-7.534e-07
3.04838e-06
6.18508e-06
-2.68374e-06
4.81446e-06
-2.38925e-05
2.17618e-05
-2.17646e-06
2.17339e-06
-3.10264e-06
-2.23984e-06
1.08966e-07
-1.41805e-06
-1.78821e-06
2.36294e-07
-2.32363e-06
1.84515e-06
-1.04287e-06
1.49422e-06
3.84912e-06
-3.38653e-07
2.81538e-10
2.66376e-06
7.21687e-07
1.33912e-06
9.85902e-07
2.4238e-07
4.67105e-07
-2.00953e-07
5.65585e-07
-5.83218e-07
5.39766e-06
-1.21523e-06
1.74267e-06
-2.7039e-06
-1.40643e-06
1.33996e-06
-1.48215e-06
1.73066e-07
-9.40594e-07
-6.11319e-07
3.60729e-09
-4.82083e-07
4.51343e-07
2.70842e-06
-2.27759e-06
3.41829e-06
2.65839e-06
-3.33295e-07
1.8013e-06
2.59512e-07
8.83554e-07
3.44727e-07
1.82787e-07
8.33642e-08
-1.76332e-08
-1.68836e-06
-9.52506e-07
1.42563e-06
-6.61451e-07
9.97681e-07
-8.42466e-07
7.00273e-07
-8.73833e-07
1.06304e-07
-4.96691e-07
-1.1102e-07
-3.07398e-08
1.50374e-06
-2.03595e-06
3.24062e-06
1.72706e-06
-1.34628e-06
1.68482e-06
-2.16815e-07
1.07559e-06
6.747e-08
4.62444e-07
6.50692e-08
6.57306e-08
-2.47223e-06
-1.39711e-06
2.18098e-06
-1.04708e-06
-5.66884e-07
-3.37094e-07
4.92307e-07
-4.55329e-07
2.81769e-07
-4.23522e-07
3.31339e-08
-1.4176e-07
2.15683e-06
1.27783e-06
-1.93092e-06
8.36222e-07
-1.14513e-06
1.01772e-06
-6.79183e-07
9.59071e-07
-1.00292e-07
5.24298e-07
5.61617e-09
1.308e-07
-2.93703e-06
-7.53394e-07
1.2182e-06
-1.6346e-06
-8.09598e-07
-6.10494e-07
-2.93484e-07
-1.52688e-07
1.89665e-07
-2.04039e-07
6.22854e-08
-1.08627e-07
-2.83574e-06
1.91454e-07
-2.92751e-07
1.29664e-06
-1.97555e-06
1.35236e-06
7.61676e-07
4.32108e-07
-5.59513e-07
5.44322e-07
-2.64436e-07
4.50421e-07
-2.6416e-08
1.36416e-07
-1.96031e-06
-4.27698e-07
-1.01408e-06
-4.06012e-07
-3.25685e-07
-1.20488e-07
-5.35749e-08
3.91997e-08
-4.63418e-08
-1.88469e-06
1.15818e-07
7.64304e-07
7.98962e-07
3.9482e-07
1.99109e-07
-2.14301e-07
2.4207e-07
-5.60849e-08
1.09999e-07
-1.22915e-06
-2.12635e-07
-5.71951e-07
-1.59747e-07
-1.46177e-07
-2.78868e-08
-7.14242e-09
-1.17463e-06
6.12999e-08
3.88637e-07
4.31824e-07
1.62104e-07
7.16102e-08
-4.38431e-08
5.39145e-08
-7.00135e-07
-8.44517e-08
-2.70107e-07
-3.58178e-08
-3.50294e-08
-6.65405e-07
2.65694e-08
1.55056e-07
1.96062e-07
3.76511e-08
1.00708e-08
-3.34799e-07
-1.97602e-08
-7.08473e-08
-3.15567e-07
7.33694e-09
3.55496e-08
4.77216e-08
-9.06076e-08
-8.3271e-08
0.000597178
-0.00138178
-0.00106661
0.0003234
-0.000539917
0.000860692
-0.000537292
0.000540312
0.00130424
-0.000763926
0.00111381
-0.000267972
0.00157007
-0.00183804
0.000503455
-0.000298229
-0.00139491
0.000630982
0.000139433
-0.000311492
-0.000400484
4.44261e-05
-0.000121388
-0.000267066
0.00033185
-0.000732334
0.00117716
-0.000845312
0.00063987
-0.000755038
0.00207404
-0.00144306
0.000236004
0.00130967
-0.00107367
0.00101145
0.0003584
0.00101925
-0.00177429
-0.000423808
-6.03259e-05
0.000230335
-0.000290661
-3.67308e-05
-0.000769065
-6.73821e-05
-0.000701683
0.00137394
-0.00144132
0.000528627
-0.00124567
0.00142814
-0.00185195
0.000354467
0.00088704
-0.000532573
-0.00124544
0.000755122
-0.00137917
0.0010586
-0.000624053
0.000990078
-0.00223574
-0.000861868
0.000861455
0.000803661
0.00177799
-0.000412938
0.000999321
-0.00149409
0.00135916
-0.000435496
-0.00116234
0.000749401
-0.000790923
-0.00132527
0.00138111
3.38904e-05
-0.00129354
0.000502621
-0.00107567
0.000305438
-0.00019315
0.000132842
-0.000325992
-0.000568841
0.000281251
-0.000850091
-0.00116007
0.000202693
-0.00136276
-0.00203305
0.00114362
-0.00200549
-0.000611047
-1.30058e-05
-0.000667271
0.000231775
-0.000680276
-2.45321e-05
-0.00200852
-0.00203002
-0.000901693
0.00170535
-0.000117079
0.000882242
0.000281915
0.00149608
0.00198727
0.00166498
-2.6723e-05
0.000908965
-0.00101691
0.000990191
-0.000267513
-0.000587033
0.000620923
-0.000355258
-0.000971441
0.000703928
-0.00046882
-0.00079796
0.00032914
-0.000492523
0.0001284
-0.000251454
8.12124e-05
-0.000332667
-0.000768879
3.49709e-05
-0.00080385
-0.00132779
-0.0003509
-0.000976892
-0.00235942
0.000884733
-0.00123999
0.000204457
-0.00182556
-0.0014259
0.000185904
0.000920261
-0.00274582
-0.00143916
0.000538771
0.0014485
0.00144774
-0.00100913
0.00137378
0.000655849
0.00210435
9.88561e-05
0.00134888
0.00108905
4.40735e-05
0.00104497
0.000748002
0.000217882
0.00053012
0.000547022
0.000675423
-0.000750473
-0.000309034
1.00468e-05
-0.00031908
-0.000793803
-0.000349432
-0.000444371
-0.00132632
-0.000424807
-0.000901517
-0.00186396
0.00201391
-0.001828
-0.000731917
0.00173278
-0.00248326
-9.52205e-05
0.00128856
-0.00202047
-0.000575406
-0.000617139
0.000862956
0.000756639
-0.00121305
0.00196969
0.0008913
0.00224018
0.00140618
0.000833995
0.00245116
0.00298128
-0.000632526
0.00205924
-0.00142672
0.00311578
-0.000134503
-0.000344728
0.000565033
-0.00114044
-9.40181e-05
-0.00025071
-0.000538389
-0.000119142
-0.000419248
-0.00102066
-0.000455626
0.00182439
0.000234849
-0.00172917
-0.000291301
-0.000733358
0.000968207
-0.000977256
-0.000163183
0.000647998
-0.000939299
-0.000329257
-0.00117892
0.000445563
-0.00032534
0.000537203
0.000537616
2.80338e-05
-0.000605784
0.00057775
-0.00115089
-0.00012276
0.000349239
-0.000226478
-0.000728544
-0.000703031
0.00124065
0.00126666
0.00210065
-0.000341429
-0.000809458
-0.00176815
0.001217
0.000883655
0.00108249
-0.000685654
-0.000286468
0.000394864
-0.000558047
-0.00067674
0.000221114
-0.000281875
-0.000125808
-0.000160661
-0.000545055
-0.000323942
-0.00126097
0.000321671
-0.000292763
-0.000608627
0.000315864
-0.000163064
-0.000503022
-5.5025e-05
0.000832279
-0.000510608
-0.000676684
0.00051362
-9.89338e-05
0.000369079
-1.98403e-05
0.000270145
-0.000219619
0.000199779
1.72114e-05
0.000144669
-0.00016188
-0.000202408
-0.000428886
-0.000259281
-0.000169606
-0.000113003
0.000262292
0.0004242
-0.000149268
0.000573468
0.00109138
0.000317349
-0.00057663
-0.000411196
-0.00122065
0.00046877
0.000622609
-0.000666771
-0.000553883
0.00135242
-2.15589e-05
0.000109865
0.000240733
0.000113869
-0.000274529
-1.0848e-05
-0.000466318
0.000184442
-0.000521343
-0.000100944
-0.000173585
-0.000424886
-0.000240443
0.000483782
2.98377e-05
-0.000799646
0.000289038
-0.000531988
1.06456e-05
-0.000242951
-0.000300904
0.000330742
-0.000346533
4.5629e-05
-7.6388e-05
-0.000238803
0.000162415
-3.9024e-05
-0.000132037
9.30125e-05
1.26322e-05
5.50577e-06
2.43837e-05
-2.98895e-05
1.27607e-05
-2.40489e-05
4.84326e-05
6.9815e-05
-9.38639e-05
8.24471e-05
-4.69371e-05
-4.69268e-05
-0.000208817
-2.42598e-05
-5.62971e-06
-7.11867e-05
-1.78811e-05
-0.000102297
-0.00010652
-0.000271903
-0.000104197
-0.000167706
-0.000680826
-9.42739e-05
0.000335007
0.000479195
0.0011018
-0.000443699
-0.000237127
0.000997582
0.000104222
1.87221e-05
2.61995e-05
0.000128587
4.65909e-05
8.19959e-05
0.000381598
5.40436e-05
-0.000227629
1.35534e-05
-7.328e-05
-0.000154349
-0.000313723
-0.000303078
-0.000234928
-6.81495e-05
-0.000477879
-0.000147137
0.000191998
-2.9583e-05
-0.000237627
9.049e-05
5.34818e-05
2.89654e-05
0.000146494
0.000116911
4.09948e-05
7.43788e-06
6.99601e-05
1.77074e-05
-4.91532e-05
-2.20335e-05
-0.000155673
-2.30988e-05
5.2177e-06
-4.51323e-05
-2.80724e-06
1.52429e-05
-1.47918e-07
4.14424e-05
-0.000103302
-5.23713e-05
-0.000271008
-0.000148718
-0.00012229
-0.000385846
0.000342261
3.93376e-05
0.000446482
6.06365e-05
9.44846e-06
3.19939e-05
9.14443e-05
0.000130782
9.71195e-05
-2.71594e-05
0.000214031
-0.000236371
8.20224e-05
-0.000304521
-1.8566e-05
-5.39765e-06
-8.06826e-06
7.92034e-06
-6.55833e-06
-4.08021e-05
-4.33018e-06
-9.31735e-05
-1.27238e-05
9.91659e-06
-1.7054e-05
6.26481e-06
1.14571e-05
-3.5368e-06
4.34511e-05
-7.52936e-05
-1.78799e-05
-0.000197583
-0.000136947
3.34796e-05
9.97141e-06
0.000164262
2.73148e-05
-8.41854e-06
4.88174e-06
5.09131e-06
-8.19395e-06
-1.46703e-06
-9.88557e-06
-7.67802e-07
-7.42615e-06
-3.47171e-06
-3.03715e-05
1.33174e-05
-4.82513e-05
-1.81413e-06
8.07894e-06
1.15033e-05
8.0792e-06
1.3152e-05
-8.27024e-06
2.31234e-05
3.05124e-05
-7.38899e-06
-5.78272e-05
9.57588e-06
-4.50678e-07
-9.43489e-06
-8.72093e-06
-2.5217e-06
-4.90446e-06
-1.19566e-05
-2.04609e-06
-6.95055e-06
2.83162e-06
8.67167e-06
1.24075e-05
-4.25563e-06
7.67391e-06
3.82356e-06
1.24952e-05
-2.5779e-06
-6.14303e-06
-9.9669e-06
-1.12742e-05
1.30734e-06
1.13324e-06
8.30664e-07
6.84324e-06
4.07127e-06
-8.19054e-06
-3.76606e-06
-1.43336e-05
-4.76958e-06
-8.53564e-06
4.98972e-07
6.34427e-06
1.29942e-05
1.41274e-05
-1.30013e-05
-1.33227e-06
1.1694e-05
2.43345e-06
2.14034e-06
8.4846e-06
-7.31745e-06
-8.64972e-06
-8.94249e-06
6.50904e-06
)
;

boundaryField
{
    movingWall
    {
        type            calculated;
        value           uniform 0;
    }
    fixedWalls
    {
        type            calculated;
        value           uniform 0;
    }
    frontAndBack
    {
        type            empty;
        value           nonuniform List<scalar> 0();
    }
    defaultFaces
    {
        type            empty;
        value           nonuniform List<scalar> 0();
    }
}


// ************************************************************************* //
