/*--------------------------------*- C++ -*----------------------------------*\
  =========                 |
  \\      /  F ield         | OpenFOAM: The Open Source CFD Toolbox
   \\    /   O peration     | Website:  https://openfoam.org
    \\  /    A nd           | Version:  8
     \\/     M anipulation  |
\*---------------------------------------------------------------------------*/
FoamFile
{
    version     2.0;
    format      ascii;
    class       volVectorField;
    location    "0.074";
    object      U;
}
// * * * * * * * * * * * * * * * * * * * * * * * * * * * * * * * * * * * * * //

dimensions      [0 1 -1 0 0 0 0];

internalField   nonuniform List<vector> 
656
(
(0.743372 0.0565316 -9.65465e-25)
(0.927889 0.0140691 1.86666e-24)
(0.954788 -0.00127375 0)
(-0.0910749 0.118994 2.40002e-23)
(0.556742 0.0977245 1.12098e-23)
(0.841242 0.000939747 0)
(-0.0571798 0.0672276 -4.93902e-23)
(-0.0145962 0.018846 9.85105e-24)
(0.968227 -0.000150837 0)
(-0.000504579 0.138601 -2.37829e-24)
(-0.00304954 0.193131 -7.83496e-23)
(-0.117738 0.172053 0)
(0.376006 0.139834 1.00526e-23)
(0.715019 0.00930684 0)
(0.890989 0.00127447 -1.70666e-22)
(0.906566 0.000583075 4.77897e-23)
(0.00104047 0.0823433 9.70507e-24)
(0.00137428 0.0267217 0)
(0.971852 -7.63402e-05 -3.43356e-23)
(0.913661 0.000298511 -1.43718e-22)
(-0.0123884 0.0928736 7.71105e-23)
(-0.00523407 0.0628723 0)
(-0.0239222 0.125115 1.33362e-24)
(-0.00789611 0.242544 1.53982e-22)
(-0.136115 0.223437 -1.67657e-22)
(0.210343 0.18042 -2.26587e-23)
(0.577674 0.0245875 0)
(0.8007 0.00637687 2.66449e-22)
(0.829493 0.00303211 -8.91621e-23)
(-0.00144234 0.0356646 0)
(-0.000151563 0.0114449 0)
(0.916984 0.000158316 5.13466e-23)
(0.973373 -4.69528e-05 -3.66606e-23)
(0.842957 0.00161726 1.95816e-22)
(0.849421 0.000810318 -5.18088e-23)
(0.854026 6.33952e-05 -1.08889e-22)
(-0.00677975 0.0608908 -1.05382e-22)
(-0.00280708 0.0409244 1.7071e-23)
(-0.0137926 0.0825102 -1.88325e-22)
(-0.0408483 0.158565 -1.577e-22)
(-0.01671 0.28282 1.66501e-22)
(-0.143742 0.269547 -4.77706e-24)
(0.0686491 0.217917 4.55153e-22)
(0.433183 0.0474137 0)
(0.696558 0.0162322 0)
(0.73938 0.00802622 -3.69819e-22)
(-0.000821631 0.0230281 -5.40254e-24)
(-0.000128819 0.00732303 0)
(0.854938 -0.000883155 1.20144e-22)
(0.91945 2.84279e-05 -2.78104e-23)
(0.974007 -2.02133e-05 4.92917e-24)
(0.759767 0.00435491 0)
(0.769759 0.00218509 0)
(0.776836 0.000151769 -1.06666e-22)
(0.77838 -0.00237207 4.59707e-22)
(0.76362 -0.00604298 0)
(-0.0103746 0.0366045 2.00132e-22)
(-0.00502148 0.02574 2.95146e-22)
(-0.00202821 0.0165174 -2.87514e-22)
(-0.0250269 0.104803 -1.85263e-22)
(-0.0193444 0.0489372 5.84788e-22)
(0.286811 0.0796719 -1.32799e-22)
(0.578469 0.0319865 1.75137e-22)
(0.635199 0.0165796 -5.20766e-22)
(-0.000553541 0.00884756 4.53703e-23)
(-6.70906e-05 0.00256183 6.09052e-23)
(0.844856 -0.00224235 -2.54661e-22)
(0.919997 -0.000146376 8.54504e-23)
(0.974686 1.29001e-05 5.47829e-24)
(0.726764 -0.0151976 -1.16789e-23)
(0.662688 0.00911844 0)
(0.67645 0.00466374 1.93316e-22)
(0.686377 0.000385899 2.04132e-22)
(0.688961 -0.00481312 -8.82333e-22)
(0.669702 -0.0125426 2.27279e-22)
(-0.00839888 0.0139351 8.88424e-22)
(-0.00405368 0.00913829 -6.83442e-24)
(-0.00182773 0.00550526 0)
(-0.000643619 0.00295312 1.05771e-22)
(0.447786 0.0558275 0)
(0.516949 0.0303672 6.66112e-22)
(-8.94496e-05 0.00127337 -1.00135e-22)
(5.53253e-05 0.000241402 -3.08629e-23)
(0.604783 -0.0240903 4.71814e-22)
(0.820257 -0.00592572 1.49695e-22)
(0.914482 -0.000374909 0)
(0.97503 4.19923e-05 -5.28357e-23)
(0.619967 -0.0302303 -2.88772e-22)
(0.468205 -0.0472376 7.26194e-22)
(0.251477 -0.190757 -8.79082e-22)
(0.55082 0.0170789 0)
(0.568142 0.00874729 4.66272e-23)
(0.581228 0.000991599 -1.45194e-22)
(0.585527 -0.00871529 5.11887e-22)
(0.562568 -0.02318 -8.69614e-22)
(-0.0147914 0.00626427 3.73777e-22)
(-0.00924734 0.00306675 -3.98855e-22)
(-0.00537238 0.00139794 -1.97736e-22)
(-0.00279656 0.000480325 3.9135e-22)
(-0.00116589 4.38441e-05 4.71301e-23)
(-0.000203202 -6.20619e-05 -2.84977e-23)
(-0.136729 -0.25024 5.90066e-23)
(0.411943 -0.147966 -6.13837e-23)
(0.732777 -0.00901629 -7.95847e-22)
(0.901184 -0.00112445 0)
(0.973746 0.00010958 0)
(0.499713 -0.0539472 5.52147e-22)
(0.325507 -0.0810132 -2.77331e-22)
(0.106281 -0.230035 1.02582e-22)
(-0.14141 -0.298196 1.38428e-21)
(-0.0465808 0.0112551 0)
(-0.0340213 0.00583956 1.86864e-22)
(-0.0235917 0.00285794 -6.59979e-22)
(-0.014988 0.00114532 1.84042e-22)
(-0.00792724 0.000287619 -4.38529e-23)
(-0.00212807 2.17947e-05 -2.72269e-23)
(-0.00754451 -0.289026 0)
(-0.120665 -0.194925 0)
(0.582913 -0.103403 4.88166e-22)
(0.850386 -0.000878672 -3.99584e-23)
(0.970605 0.000203291 -1.0304e-22)
(-0.0155583 -0.332914 -1.64648e-21)
(-0.0760017 0.0100103 0)
(-0.0568625 0.00552744 1.93151e-22)
(-0.0403704 0.00276354 -1.41158e-24)
(-0.0262673 0.00117178 9.54893e-23)
(-0.0142713 0.000360381 -4.48737e-23)
(-0.00411644 7.18051e-05 0)
(-0.0276224 -0.164268 -5.51166e-22)
(-0.00296302 -0.233226 0)
(-0.094997 -0.136206 5.08316e-22)
(0.75789 -0.0597746 0)
(0.956554 0.00135216 7.64119e-23)
(-0.0466789 -0.205087 0)
(-0.0980836 0.00828931 0)
(-0.074166 0.00460875 1.20079e-22)
(-0.0531749 0.00234368 -3.48155e-22)
(-0.0349416 0.00102806 1.12647e-22)
(-0.0192397 0.000345406 5.03487e-23)
(-0.0057843 8.89864e-05 -1.6874e-23)
(-0.0156551 -0.119019 2.82624e-22)
(-0.0145375 -0.123347 0)
(-0.000248294 -0.169215 -4.45517e-22)
(-0.0605237 -0.0776121 4.30418e-22)
(0.931395 -0.0147218 0)
(-0.0284336 -0.148583 0)
(-0.107002 0.00724141 1.53156e-22)
(-0.0809991 0.00408731 -1.47863e-22)
(-0.0581635 0.00207779 1.43074e-22)
(-0.0382905 0.000905928 -2.7389e-22)
(-0.0211548 0.000304629 3.76658e-22)
(-0.00650414 7.8617e-05 -5.0219e-23)
(-0.0133568 -0.0678528 2.43769e-22)
(-0.00771825 -0.0890925 -5.22017e-22)
(-0.00596357 -0.0840634 1.52073e-22)
(0.00181252 -0.10077 -4.61979e-22)
(-0.014189 -0.0214027 1.30993e-23)
(-0.024114 -0.0868431 0)
(-0.0154601 -0.0452092 -5.49847e-23)
(-0.10796 0.00780793 -1.88584e-22)
(-0.0816217 0.00492837 7.60127e-22)
(-0.0586922 0.00264414 -7.25772e-22)
(-0.0387743 0.00113982 0)
(-0.0215129 0.000351519 0)
(-0.00671209 7.27344e-05 -5.50905e-24)
(-0.00849359 -0.035077 1.17253e-22)
(-0.00666762 -0.0497879 3.44425e-24)
(-0.00302975 -0.0605396 3.97954e-22)
(-0.00125806 -0.0475651 -1.49542e-22)
(0.00233742 -0.0310265 0)
(-0.00873715 -0.0196272 8.91157e-22)
(-0.0632736 0.00409088 8.2911e-22)
(-0.0414397 0.00257041 -8.57315e-22)
(-0.0227746 0.000908239 0)
(-0.00700796 0.000157894 -7.76635e-24)
(-0.00480585 -0.0146266 -2.36315e-22)
(-0.00418763 -0.0254815 -9.16755e-23)
(-0.00273015 -0.0332896 1.89005e-22)
(-0.000643025 -0.034249 -1.29325e-22)
(0.000182376 -0.0143646 4.94292e-23)
(-0.00447348 -0.00526376 0)
(-0.00270536 0.00319973 -1.02406e-21)
(-0.0505243 0.00117973 0)
(-0.0176835 0.000393757 -2.71412e-23)
(-0.00152164 0.000803329 0)
(-0.00238097 -0.00358775 -2.4056e-22)
(-0.00234479 -0.0102321 -4.59276e-22)
(-0.0017212 -0.0168608 -6.24876e-23)
(-0.000724362 -0.0186255 1.27155e-22)
(7.6519e-05 -0.0106528 -4.96195e-23)
(-0.0010798 -0.000901893 2.0881e-21)
(-0.00130591 0.00154716 2.17905e-21)
(-0.00310731 0.0036926 7.02065e-23)
(-0.000132259 0.00198814 -4.81421e-22)
(-0.000748952 0.00104751 -9.82231e-25)
(-0.00111814 -0.00225114 1.24587e-22)
(-0.000958218 -0.00653566 3.71987e-22)
(-0.000483962 -0.00935025 7.6215e-24)
(-6.56821e-05 -0.00583872 -2.27909e-23)
(-0.000147214 -0.00257457 -1.88323e-24)
(-0.000453093 -0.00141121 -1.74692e-21)
(-0.000547524 0.000678393 -5.26915e-22)
(-0.00136116 0.0015781 0)
(-0.00319337 0.00914207 1.5172e-21)
(0.000388984 0.00150904 -2.58748e-22)
(-4.0086e-06 0.00176391 2.56504e-22)
(-0.000314406 0.00105822 1.28437e-22)
(-0.000440116 -0.001266 0)
(-0.000272083 -0.00350547 -1.2192e-22)
(-6.4769e-05 -0.00293363 1.71268e-23)
(0.000229816 -0.00282285 8.27431e-22)
(1.30704e-05 -0.00241759 3.3375e-22)
(-0.000162089 -0.00146201 1.96693e-22)
(-0.000173851 0.000192989 5.36028e-23)
(-0.000334877 0.000545492 -6.14598e-23)
(-0.000459756 0.00211969 1.09239e-21)
(0.000310058 0.000534437 1.08136e-21)
(0.000248252 0.00126854 -4.0476e-22)
(2.97982e-05 0.00143189 -2.63975e-22)
(-0.000107148 0.000883362 -1.28486e-22)
(-0.000115816 -0.000584142 0)
(-3.967e-05 -0.00106205 -1.12742e-23)
(0.000527789 -0.00205759 0)
(0.000185008 -0.00240344 -2.86302e-22)
(4.72145e-05 -0.0020082 -9.86498e-22)
(-3.7669e-05 -0.00121432 3.21488e-22)
(-2.21716e-05 -2.85417e-05 -3.58206e-22)
(-1.24935e-05 1.18656e-05 9.65585e-24)
(0.000531737 0.000191928 -4.69796e-22)
(0.000171417 0.000398689 7.16203e-22)
(0.000139441 0.000980094 -6.9298e-22)
(2.76276e-05 0.00103548 1.32346e-22)
(-1.72634e-05 0.000583652 0)
(-1.09987e-05 -0.000141977 1.11475e-23)
(0.000388724 -0.00069842 0)
(0.000316669 -0.00169537 5.50364e-22)
(0.000115018 -0.0018745 7.16438e-22)
(3.78227e-05 -0.00146539 9.39674e-22)
(8.24217e-06 -0.000791095 -3.33798e-22)
(9.77971e-06 -5.50884e-05 -2.20473e-23)
(0.00120463 0.000277123 -5.60812e-22)
(0.000378193 0.000104362 0)
(8.36604e-05 0.000273153 5.14327e-22)
(6.48365e-05 0.000678268 0)
(1.68315e-05 0.000614188 0)
(6.22585e-06 0.000211427 0)
(0.000718329 -0.000234718 6.27184e-22)
(0.000209786 -0.000524266 -5.6927e-22)
(0.000168796 -0.00128705 -5.60026e-22)
(5.82643e-05 -0.00130796 -4.18076e-22)
(2.38471e-05 -0.000871862 -4.34757e-22)
(1.3186e-05 -0.00027929 1.31221e-23)
(0.00168484 0.000145569 0)
(0.00096061 0.00015908 1.40554e-22)
(0.000249635 5.15195e-05 0)
(3.23218e-05 0.000167193 1.98713e-27)
(2.19588e-05 0.000385 0)
(8.66896e-06 0.000196557 -8.98033e-23)
(0.00183301 -2.66653e-05 0)
(0.00156325 -0.000258081 -5.66057e-22)
(0.000521918 -0.000131847 -1.57989e-22)
(9.93809e-05 -0.000359942 2.91849e-22)
(7.56383e-05 -0.000877012 -4.14963e-22)
(2.45316e-05 -0.000749749 -1.31463e-22)
(1.22905e-05 -0.000280543 9.15682e-23)
(0.00135257 8.23097e-05 -1.88764e-23)
(0.00071505 8.24236e-05 -2.10201e-22)
(0.000149201 2.00229e-05 0)
(6.3145e-06 8.29705e-05 -1.0821e-22)
(5.51478e-06 0.000112576 9.05924e-23)
(0.00146976 -1.80182e-05 2.09891e-24)
(0.00124654 -0.000151779 6.35705e-22)
(0.000352359 -6.60002e-05 -4.72242e-27)
(3.77607e-05 -0.000221058 1.34888e-25)
(2.46066e-05 -0.00049029 -2.65275e-22)
(9.4957e-06 -0.000226751 8.36334e-23)
(0.00101711 4.25346e-05 1.4857e-22)
(0.000482867 3.63562e-05 1.02542e-22)
(7.33811e-05 3.85647e-06 -1.26143e-22)
(-1.22016e-06 1.91307e-05 2.30053e-23)
(0.00110518 -1.07121e-05 2.09439e-24)
(0.000930733 -8.12265e-05 -1.40607e-22)
(0.000215744 -2.61235e-05 4.54167e-22)
(7.22213e-06 -0.000110323 -2.12769e-22)
(6.00918e-06 -0.000139024 3.40275e-26)
(0.000695677 1.89644e-05 0)
(0.00027122 1.1976e-05 1.13807e-22)
(1.73595e-05 -1.10194e-06 7.96667e-23)
(0.000756425 -5.78252e-06 0)
(0.000631177 -3.70756e-05 -2.057e-22)
(0.000108876 -5.34024e-06 3.95908e-22)
(-1.46273e-06 -2.55698e-05 4.39587e-23)
(0.00039808 6.50309e-06 -9.70973e-25)
(8.26323e-05 2.82757e-06 -1.43009e-22)
(0.000433365 -2.79465e-06 9.69711e-25)
(0.000356343 -1.29584e-05 -1.14033e-22)
(2.67239e-05 1.18609e-06 1.12934e-22)
(0.000128893 1.65403e-06 4.33797e-23)
(0.000140599 -1.23257e-06 0)
(0.000109442 -3.58679e-06 -1.09966e-23)
(-0.142805 0.304015 2.22384e-21)
(-0.0269625 0.258916 5.09922e-22)
(-0.0419225 0.128297 0)
(-0.0753956 0.189539 2.78624e-21)
(-0.0629117 0.19421 -2.94436e-21)
(-0.0730219 0.268243 0)
(-0.0373496 0.311078 0)
(-0.098045 0.353176 -1.02569e-21)
(-0.08493 0.314173 0)
(-0.0388407 0.266567 -1.88531e-21)
(0.152159 0.126701 4.23772e-21)
(-0.0955073 0.278837 0)
(-0.03381 0.0636959 -3.65698e-22)
(-0.0560703 0.10525 0)
(-0.0162073 0.0192658 -3.8181e-21)
(-0.0385988 0.0469832 3.90723e-21)
(-0.0831657 0.121715 -2.27028e-21)
(-0.114795 0.159415 0)
(-0.0954013 0.203483 0)
(-0.119101 0.240239 6.18363e-22)
(-0.10878 0.295515 0)
(-0.0974964 0.289536 1.95869e-21)
(-0.0152745 0.194479 2.36968e-21)
(0.0946771 0.155501 -5.71834e-21)
(0.302808 0.0912259 1.1234e-21)
(-0.149953 0.235268 -5.90025e-22)
(-0.140544 0.252468 0)
(-0.02157 0.0120703 -3.15875e-21)
(-0.0491877 0.0286522 8.65329e-22)
(-0.0607815 0.0521563 7.20348e-22)
(-0.0913819 0.081873 2.30837e-21)
(-0.121538 0.0806725 -4.445e-21)
(-0.167505 0.115468 -3.93328e-21)
(-0.159415 0.156946 -3.00646e-21)
(-0.184491 0.185493 5.63126e-21)
(-0.130935 0.208744 -1.64175e-21)
(-0.0600035 0.184081 -1.71406e-21)
(0.0433071 0.128476 0)
(0.387485 0.0504142 -5.74684e-21)
(0.190366 0.106435 0)
(0.423918 0.0298113 0)
(0.243694 0.0593205 4.83683e-21)
(-0.206809 0.172877 0)
(-0.178849 0.179867 0)
(-0.0108497 -0.277363 6.0371e-21)
(-0.146116 -0.330368 0)
(0.386533 -0.0835094 0)
(0.436591 0.0148311 -1.97023e-22)
(0.273586 0.0341711 0)
(0.269506 -0.094438 0)
(0.456516 -0.037643 1.1832e-21)
(0.458414 0.00178992 3.69632e-21)
(0.296564 0.00854991 0)
(0.320003 -0.0442466 0)
(0.473838 -0.0152632 0)
(0.325077 -0.0149204 -3.75314e-21)
(-0.0639564 0.0225516 1.14953e-21)
(-0.097419 0.0360225 -1.44531e-21)
(-0.120521 0.0485923 4.75469e-21)
(-0.173507 0.0548053 0)
(-0.202302 0.0851128 0)
(-0.23169 0.0954698 -3.10481e-21)
(-0.249595 0.120081 -2.36309e-21)
(-0.15232 0.139198 0)
(0.0674743 0.0804146 3.34717e-21)
(-0.0352888 0.11803 0)
(0.151938 0.0435607 0)
(0.00478908 0.0682011 -3.61973e-21)
(-0.267031 0.106383 7.84729e-21)
(-0.228674 0.113306 -2.31887e-21)
(-0.0112153 -0.264233 -3.40716e-21)
(0.172347 -0.137728 7.67053e-21)
(0.147204 -0.15698 -6.00213e-21)
(-0.11483 -0.387002 1.70474e-21)
(-0.0771489 -0.329032 -3.71049e-21)
(-0.0361765 -0.36038 2.43751e-22)
(0.0477162 -0.183749 -6.36435e-21)
(0.0511215 -0.153928 2.08615e-21)
(0.149714 -0.110148 3.22716e-21)
(0.133986 0.0100528 0)
(0.0258751 0.0381204 0)
(0.0864953 -0.0943306 -3.55658e-21)
(0.189471 -0.0572666 0)
(0.101076 -0.0462998 -3.31619e-21)
(0.200518 -0.0211027 3.02413e-21)
(0.061517 -0.00977906 4.60935e-21)
(-0.0973005 0.0161599 1.65292e-21)
(-0.141107 0.0248616 0)
(-0.168209 0.0343257 0)
(-0.213579 0.0401053 3.28343e-21)
(-0.245115 0.0588337 0)
(-0.27429 0.0598852 8.26245e-21)
(-0.294488 0.0759697 -7.06129e-21)
(-0.108268 0.0542615 0)
(-0.132032 0.0690114 -5.67659e-21)
(-0.222721 0.0873986 1.15629e-20)
(-0.19513 0.0400479 0)
(-0.292499 0.0752855 -7.47359e-21)
(-0.306166 0.0691307 -3.98625e-21)
(-0.0857051 -0.31504 0)
(-0.0705498 -0.248568 7.72745e-21)
(-0.0719292 -0.243744 0)
(-0.0639362 -0.32304 -5.27585e-22)
(-0.0899647 -0.326024 4.14361e-22)
(-0.102174 -0.24241 -7.93624e-21)
(-0.0603535 -0.1885 -7.29074e-21)
(-0.0903758 -0.162634 9.69496e-21)
(-0.037194 -0.116153 2.98968e-21)
(-0.10366 -0.0834621 -3.91715e-21)
(-0.0500511 -0.0527864 0)
(-0.0772376 -0.0178783 -3.18619e-21)
(-0.172138 0.0108882 0)
(-0.12347 0.0131833 0)
(-0.167777 0.0198108 -1.28102e-21)
(-0.19809 0.025649 -5.01983e-21)
(-0.232513 0.0320154 4.30492e-21)
(-0.261238 0.0426939 -1.53212e-21)
(-0.279697 0.0448578 -1.96662e-21)
(-0.307502 0.0567846 6.22751e-21)
(-0.277592 0.046869 -6.94647e-21)
(-0.301047 0.0619392 8.4695e-21)
(-0.264021 0.0155176 0)
(-0.298744 0.0397472 -1.19024e-21)
(-0.321156 0.0618699 0)
(-0.314349 0.0565549 0)
(-0.0467889 -0.174283 -1.23694e-20)
(-0.0894369 -0.248983 4.26681e-21)
(-0.109884 -0.258978 5.15499e-21)
(-0.121759 -0.28863 -7.10461e-22)
(-0.137736 -0.259295 6.55441e-22)
(-0.172241 -0.210015 -7.46635e-21)
(-0.174979 -0.170575 0)
(-0.195627 -0.112952 -9.32944e-21)
(-0.281266 0.0178851 -4.39169e-21)
(-0.237526 -0.0819573 6.78738e-21)
(-0.273983 -0.0184102 2.80129e-21)
(-0.135491 0.0115872 4.51756e-21)
(-0.294654 0.0530388 2.69734e-21)
(-0.173479 0.0179218 -3.2275e-21)
(-0.198929 0.0232791 -2.79436e-21)
(-0.226286 0.0312842 -6.052e-21)
(-0.261496 0.0397333 1.35423e-21)
(-0.270885 0.0439363 -3.43185e-21)
(-0.294264 0.0460105 -2.69921e-21)
(-0.318224 0.0607576 6.72781e-22)
(-0.313215 0.0515403 1.23266e-21)
(-0.274822 0.0591499 4.81692e-21)
(-0.291137 0.0568335 1.99653e-21)
(-0.30194 0.0645107 -1.27922e-21)
(-0.294103 0.0611358 -1.91857e-21)
(-0.242395 0.0645794 -6.67712e-21)
(-0.0389557 -0.105073 0)
(-0.0625008 -0.165974 8.27744e-21)
(-0.183055 0.0661134 0)
(-0.221434 0.0555528 4.37741e-21)
(-0.120763 0.0615282 8.47728e-21)
(-0.14656 0.0581606 -5.59776e-21)
(-0.0860435 -0.18143 0)
(-0.12515 -0.221294 -4.90037e-21)
(-0.162282 -0.198643 1.5002e-20)
(-0.219412 0.0286057 -5.83721e-21)
(-0.245509 0.00873901 4.6204e-21)
(-0.179569 -0.157295 -1.06991e-20)
(-0.230486 -0.0769354 1.13788e-22)
(-0.222375 -0.0475219 -9.42586e-21)
(-0.135733 0.0117697 0)
(-0.26623 0.0527907 0)
(-0.245159 0.0395909 2.59672e-22)
(-0.250741 0.0463372 -3.54417e-22)
(-0.1692 0.0200971 -5.02252e-21)
(-0.197268 0.0263291 5.34146e-21)
(-0.215689 0.0314376 4.63405e-21)
(-0.284822 0.0701575 1.83083e-21)
(-0.276856 0.0697376 -4.16908e-22)
(-0.247371 0.0774183 3.63317e-21)
(-0.228215 0.0764682 1.32583e-21)
(-0.259212 0.0572782 -5.47575e-21)
(-0.264818 0.0718889 1.99909e-23)
(-0.271584 0.0638585 4.67548e-21)
(-0.201398 0.0821024 2.29948e-21)
(-0.176488 0.0804166 -7.50234e-21)
(-0.119843 0.0731852 2.88289e-21)
(-0.145048 0.0806121 2.3815e-21)
(-0.0956977 0.0709063 -3.36803e-21)
(-0.0575574 0.052436 0)
(-0.0759306 0.0589707 2.79831e-21)
(-0.0918587 0.0547437 -2.40034e-22)
(-0.0834157 0.0470304 0)
(-0.02493 -0.0547132 -4.19628e-21)
(-0.0490727 -0.0950028 4.10558e-21)
(-0.0595023 -0.102577 2.88711e-21)
(-0.0951186 -0.13828 0)
(-0.107693 0.0317474 1.0204e-20)
(-0.141125 0.0342221 0)
(-0.168883 0.0188837 5.66236e-21)
(-0.121301 -0.116486 1.30633e-22)
(-0.152628 -0.0268228 1.53358e-21)
(-0.151429 -0.124315 -4.2194e-21)
(-0.179969 -0.0561311 8.46574e-21)
(-0.0139509 -0.0251625 -4.96205e-22)
(-0.0255698 -0.0430785 0)
(-0.125997 0.0107802 0)
(-0.0850532 0.00383932 -5.14557e-22)
(-0.10285 0.00502691 5.18703e-22)
(-0.223792 0.0441709 -3.0082e-21)
(-0.234469 0.0542554 2.6453e-21)
(-0.150068 0.0166019 0)
(-0.184896 0.0256304 -2.45619e-21)
(-0.201131 0.0351504 2.95875e-21)
(-0.199191 0.0864209 1.24116e-21)
(-0.239265 0.076729 -2.0177e-21)
(-0.232747 0.0817286 -2.56043e-21)
(-0.218716 0.0602121 -3.40902e-21)
(-0.219057 0.0716351 6.76001e-22)
(-0.176328 0.0842913 0)
(-0.148073 0.0843762 0)
(-0.134572 0.0828017 0)
(-0.107069 0.0793713 -2.97557e-21)
(-0.087478 0.0727773 -1.67581e-21)
(-0.0674305 0.0661504 3.98956e-21)
(-0.0505186 0.0542347 0)
(-0.00780712 0.0145281 0)
(-0.00499958 0.00961102 -6.67873e-22)
(-0.0142628 0.0259792 3.59744e-21)
(-0.0228579 0.0350472 -3.15357e-21)
(-0.0363399 0.047139 0)
(-0.0258643 0.0329026 -5.8568e-21)
(-0.0393685 0.0403074 3.75448e-23)
(-0.0107506 0.0154324 0)
(-0.0146952 0.0201749 -4.59983e-21)
(-0.00493141 0.00587107 0)
(-0.0416632 0.0354674 1.35488e-23)
(-0.0597379 0.0401161 2.05733e-23)
(-0.0589172 0.0304309 3.5559e-21)
(-0.0924664 0.0259481 -4.32545e-21)
(-0.0363757 -0.0479379 8.81292e-21)
(-0.0604506 -0.0669714 -1.85481e-20)
(-0.0881949 -0.0672056 3.95111e-21)
(-0.087761 0.00901377 -2.28003e-21)
(-0.0965874 -0.0379604 8.37686e-21)
(-0.117162 -0.022608 -5.88531e-21)
(-0.00689846 -0.00708489 0)
(-0.0130789 -0.0154576 0)
(-0.0161938 -0.016762 -3.64655e-21)
(-0.0323169 -0.0283241 -5.33373e-21)
(-0.00421406 0.00680579 5.6515e-22)
(-0.117796 0.0104109 1.2536e-21)
(-0.069775 0.000823769 0)
(-0.0874936 0.00282311 -1.0968e-21)
(-0.146688 0.0292925 1.49048e-21)
(-0.173542 0.0375294 -4.45786e-21)
(-0.189316 0.0550408 -8.10603e-23)
(-0.162301 0.0678408 4.04893e-21)
(-0.18155 0.076115 -4.75264e-21)
(-0.169048 0.0814954 3.23333e-21)
(-0.0990652 0.0791338 -3.9307e-21)
(-0.12847 0.0781467 6.07468e-23)
(-0.125904 0.0828285 1.11157e-21)
(-0.0371275 0.053137 4.04603e-21)
(-0.0566151 0.0645247 -4.42099e-23)
(-0.078612 0.0718022 1.95872e-21)
(-0.0111579 0.0273557 1.76763e-21)
(-0.0273532 0.0448864 -2.14113e-21)
(-0.00630961 0.0177571 -1.58878e-21)
(-0.0165666 0.018536 5.2352e-21)
(-0.0262024 0.0239859 0)
(-0.00503939 0.00498397 4.11261e-21)
(-0.0073962 0.00750594 -7.26833e-21)
(-0.00222687 0.000334395 0)
(-0.00222327 0.000330678 0)
(-0.00450442 -0.00215515 -1.1554e-21)
(-0.0267764 0.019422 5.24228e-21)
(-0.0413301 0.0217578 -1.58164e-23)
(-0.0412596 0.0142441 -1.0782e-20)
(-0.0632391 0.0075737 1.0884e-20)
(-0.038951 -0.0179316 3.80771e-21)
(-0.0543178 -0.0178005 -3.09013e-21)
(-0.0479254 -0.00261527 -3.80809e-21)
(-0.00654585 -0.00306611 7.17178e-22)
(-0.013094 -0.00712624 2.03319e-21)
(-0.0214399 -0.00661816 1.40881e-21)
(-0.00507033 0.0134501 -3.05317e-21)
(-0.029265 0.0495563 0)
(-0.0616401 0.0639562 0)
(-0.0931485 0.0360229 3.94698e-21)
(-0.10883 0.0553705 -2.76841e-21)
(-0.101065 0.0671979 0)
(-0.0222612 0.00259957 3.06217e-23)
(-0.0626285 0.0148115 0)
(-0.0100246 0.0309544 -1.03652e-22)
(-0.000828932 0.00176024 -6.08664e-22)
(-0.000217381 0.00204739 2.99376e-21)
(-0.00929236 0.00687093 7.49973e-21)
(-0.0147055 0.0105693 0)
(-0.00154146 -0.00079196 -3.39871e-21)
(-0.00344419 0.000626528 -1.07878e-20)
(-0.000489 -0.00230067 5.95603e-21)
(-0.0013956 0.00147264 4.21849e-22)
(-0.0053783 -0.000677086 0)
(-0.0158951 0.00597451 0)
(-0.0257679 0.00784253 0)
(-0.0282644 0.000492738 0)
(-0.00745103 -0.00058534 4.81293e-21)
(-0.0162891 -0.00291865 -4.11251e-21)
(-0.0185696 0.00057453 0)
(-0.00132095 0.00993746 0)
(-0.000409874 0.00166464 2.7225e-21)
(0.000579781 0.00166719 -6.82893e-21)
(0.000651412 0.00195318 1.18869e-20)
(0.000635004 0.00178049 -7.18397e-21)
(0.000874327 0.0012257 -2.33877e-21)
(0.000468482 0.000635194 0)
(-0.00314089 -8.8075e-05 3.51873e-21)
(-0.00669147 0.00129238 0)
(0.000156652 -0.00293305 0)
(-0.000223111 -0.00243789 0)
(0.000225418 -0.00302099 -1.29476e-21)
(-0.000777912 0.00109798 2.23582e-21)
(-0.00308705 0.00083389 0)
(-0.00238719 0.000434711 6.7685e-21)
(-0.00463091 0.000683015 1.79024e-21)
(-0.00598354 0.00148024 -6.75077e-21)
(0.00115951 0.00146216 0)
(0.000772795 0.00130088 5.27913e-21)
(0.0012404 0.00106955 8.56214e-21)
(0.00148904 0.00124918 -9.71162e-21)
(0.000673213 0.00034533 -1.74315e-22)
(0.00121859 0.000655241 7.23278e-21)
(0.000781873 -0.00231769 1.45299e-21)
(0.000204355 -0.00132453 -1.08956e-21)
(0.000749985 -0.00229525 -8.36621e-21)
(0.000953754 -0.00268452 1.14318e-20)
(0.00119815 -0.00253995 0)
(0.00133405 0.000952634 -5.35799e-21)
(0.000533187 0.00083201 -7.84285e-21)
(0.00171906 -5.27805e-06 1.1628e-20)
(0.00158682 -0.00101995 0)
(0.00107219 -0.00147765 0)
(0.000583351 -0.000819614 4.46026e-21)
(0.00196959 0.000841201 3.35733e-21)
(0.00209653 0.000794378 -5.95495e-21)
(0.00144351 0.000457844 -1.30425e-22)
(0.00190847 0.000597054 1.78927e-24)
(0.00157936 -0.00134289 0)
(0.00194888 -0.00163133 1.9505e-21)
(0.00220157 -0.00110302 -1.68503e-21)
(0.00255573 0.000271492 -4.16375e-24)
(0.00245926 -0.000550571 7.99861e-22)
(0.00247458 -0.000120246 6.3224e-21)
(0.000882122 -0.000391381 -5.91226e-21)
(0.00160439 -0.000760722 0)
(0.0020183 0.000250863 -8.83112e-21)
(0.00244869 0.00019915 4.21039e-21)
(0.00220437 -3.66838e-05 4.48369e-21)
(0.00189641 -0.000437262 0)
(0.00231235 -0.000458145 -4.91228e-21)
)
;

boundaryField
{
    movingWall
    {
        type            fixedValue;
        value           uniform (1 0 0);
    }
    fixedWalls
    {
        type            noSlip;
    }
    frontAndBack
    {
        type            empty;
    }
    defaultFaces
    {
        type            empty;
    }
}


// ************************************************************************* //
