/*--------------------------------*- C++ -*----------------------------------*\
  =========                 |
  \\      /  F ield         | OpenFOAM: The Open Source CFD Toolbox
   \\    /   O peration     | Website:  https://openfoam.org
    \\  /    A nd           | Version:  8
     \\/     M anipulation  |
\*---------------------------------------------------------------------------*/
FoamFile
{
    version     2.0;
    format      ascii;
    class       volScalarField;
    location    "0.05";
    object      p;
}
// * * * * * * * * * * * * * * * * * * * * * * * * * * * * * * * * * * * * * //

dimensions      [0 2 -2 0 0 0 0];

internalField   nonuniform List<scalar> 
656
(
1.28256e-06
-0.235413
1.72856
-0.786692
0.18911
1.7312
-1.15105
-1.55284
2.0549
1.70645
1.76611
-0.438527
0.386131
1.74768
2.03441
2.25907
1.63663
1.58735
2.26834
2.39128
1.80218
1.82125
1.78648
1.81795
-0.0678145
0.616183
1.77435
2.01716
2.25032
1.84389
1.8667
2.55669
2.39623
2.38628
2.55442
2.6901
2.15665
2.17275
2.13734
1.78231
1.85339
0.280486
0.818515
1.80941
2.00683
2.24327
2.18698
2.19954
2.86055
2.69092
2.55894
2.38202
2.55204
2.68886
2.86104
3.0278
2.16162
2.176
2.18755
2.12049
2.14595
1.82905
2.00069
2.23596
2.19783
2.20665
3.02663
2.85864
2.6914
3.34524
2.37744
2.5491
2.68649
2.85993
3.02766
2.18289
2.19296
2.19478
2.1943
1.98953
2.22559
2.19359
2.19305
3.61263
3.34095
3.02285
2.85626
3.34577
3.56263
4.81679
2.36916
2.54662
2.68251
2.86018
3.02899
2.09343
2.08889
2.09022
2.09239
2.09427
2.09564
5.39496
5.07775
3.65377
3.32875
3.01751
3.3519
3.52798
4.58605
5.00429
2.1183
2.10205
2.09373
2.08739
2.08126
2.07582
3.46394
5.83362
5.30398
3.68513
3.31209
3.39813
2.13865
2.12631
2.11515
2.10589
2.0977
2.09052
3.53794
3.5492
6.25265
5.51784
3.70253
3.53243
2.2267
2.21206
2.1995
2.18916
2.18006
2.17215
3.18944
3.54079
3.65144
6.69745
5.77337
3.19326
2.32667
2.31416
2.30211
2.29182
2.28294
2.27546
3.12277
3.18762
3.53833
3.76314
7.19328
3.13357
3.07499
2.4082
2.40884
2.40264
2.39135
2.37979
2.37004
3.06641
3.11277
3.18562
3.52847
3.85136
3.07023
2.4719
2.50155
2.49492
2.47808
3.06529
3.05762
3.1035
3.18147
3.51421
3.07087
3.18782
2.31862
2.30662
3.08446
3.06824
3.05935
3.05019
3.09358
3.1754
3.15758
3.19227
3.21482
3.09287
3.08366
3.06494
3.05447
3.04318
3.08407
3.13667
3.15922
3.19681
3.21603
3.33902
3.09798
3.09261
3.08254
3.06258
3.05017
3.03685
3.12355
3.13667
3.15986
3.19991
3.22824
3.38599
3.1005
3.09833
3.09279
3.08206
3.0607
3.04643
3.11578
3.12307
3.13627
3.15971
3.20176
3.23907
3.09864
3.10074
3.09874
3.09307
3.08185
3.05913
3.11143
3.11504
3.12233
3.13554
3.1593
3.20263
3.10096
3.09835
3.10091
3.09919
3.09347
3.08171
3.1141
3.11105
3.11427
3.12156
3.13473
3.15891
3.10343
3.10068
3.09825
3.10101
3.09962
3.09384
3.1074
3.11028
3.11441
3.11076
3.1136
3.12079
3.13408
3.10328
3.10039
3.09821
3.10108
3.10004
3.10748
3.11065
3.11455
3.1106
3.11299
3.12018
3.10314
3.10014
3.0982
3.10114
3.10757
3.11098
3.11461
3.1105
3.11244
3.10301
3.0999
3.09819
3.10764
3.11129
3.11463
3.11041
3.10289
3.09969
3.10771
3.11157
3.11466
3.10278
3.10777
3.11182
0.611887
0.921021
2.12102
2.05041
1.8301
1.80109
1.83262
1.36907
1.47458
1.26354
1.80878
1.85008
2.14494
2.14383
2.16559
2.16172
2.10588
2.0805
2.01327
1.95884
1.74483
1.56628
1.91246
1.84328
1.99332
1.99096
1.88173
2.10631
2.10811
2.14117
2.1564
2.16343
2.12649
2.08137
2.09215
2.00127
1.94346
2.13242
2.22591
2.11435
2.3621
2.27291
2.13659
2.07578
4.46971
4.70429
3.32662
2.54996
2.45661
3.17383
3.02255
2.68294
2.64626
2.96542
2.86572
2.80946
2.14206
2.11411
2.12938
2.17225
2.22558
2.21808
2.20889
2.20973
2.26281
2.16371
2.45113
2.39417
2.28215
2.29805
3.9686
3.5353
3.45041
3.98482
3.79631
3.42537
3.28024
3.31035
3.16933
2.62073
2.52759
3.08337
2.97632
2.88859
2.81539
2.74316
2.14592
2.1645
2.19171
2.25017
2.27643
2.34428
2.36903
2.56638
2.41787
2.36475
2.65343
2.48427
2.4232
3.66971
3.53961
3.48922
3.52741
3.44784
3.3698
3.22785
3.17447
3.05166
2.96072
2.87902
2.73953
2.70076
2.23615
2.25208
2.27623
2.36694
2.38556
2.43665
2.47459
2.58793
2.53984
2.80876
2.73313
2.59646
2.54084
3.18413
3.31869
3.32924
3.35983
3.27935
3.20685
3.11498
3.03161
2.89186
2.97782
2.91247
2.33728
2.55205
2.37851
2.39108
2.43964
2.45268
2.51771
2.85239
2.69196
2.73501
2.88272
2.59725
2.70602
2.68014
2.88295
3.12815
3.15307
3.00082
2.96644
3.0853
3.03087
3.19332
3.24021
3.21775
3.00977
2.98408
3.17403
3.02789
3.04252
2.42725
2.61995
2.53602
2.59467
2.47633
2.47937
2.51161
2.74701
2.81515
2.8687
2.92064
2.67853
2.75356
2.70928
2.91807
2.9793
3.0364
3.03235
3.09714
3.14405
3.12432
3.06812
3.06552
3.07244
3.06015
3.0819
3.1275
3.05148
3.07581
3.03789
3.07606
3.07688
3.09111
3.07344
3.06665
3.07129
2.5604
2.45385
2.52531
2.63854
2.65783
2.53206
2.54467
2.63128
2.94432
2.79803
2.83874
2.67747
2.7984
2.98255
2.96402
3.04135
3.07015
3.09699
3.14008
3.14463
3.20241
3.22653
3.22696
3.19732
3.16906
3.18926
3.14285
3.20275
3.18195
3.18515
3.14408
3.11828
3.10743
3.05699
3.09838
3.10046
3.12579
3.09685
3.0707
3.06115
3.06657
3.06347
3.06725
3.09316
3.23823
2.45041
2.3356
2.41764
2.56453
2.59355
2.67059
2.84063
2.82932
2.86802
3.1103
3.00031
3.00876
3.27018
3.16337
3.14093
3.30451
3.27871
3.36727
3.16522
3.13395
3.16526
3.1536
3.15704
3.08088
3.08248
3.13213
3.10801
3.11362
3.08878
3.06209
3.09256
3.09852
3.0873
3.09074
3.10218
3.37852
3.18447
3.06698
3.02382
3.02724
2.98073
2.77806
3.02502
3.32072
3.09141
3.09107
3.14603
3.13212
3.13873
3.12826
3.13754
3.0934
3.0913
3.12673
3.11489
3.10218
3.09166
3.10291
3.08918
3.54136
3.09766
3.09758
3.09737
3.09842
3.09944
3.1003
3.12697
3.11424
3.1255
3.12334
3.12461
3.09816
3.1053
3.10037
3.11321
3.11542
3.09931
3.10177
3.10015
3.10042
3.09938
3.1002
3.11762
3.11464
3.11607
3.11648
3.11608
3.10227
3.10469
3.10806
3.10961
3.11274
3.11163
3.10179
3.10294
3.10113
3.10171
3.11226
3.11215
3.1103
3.10525
3.10954
3.10709
3.1133
3.11198
3.10357
3.10507
3.10725
3.10981
3.10944
)
;

boundaryField
{
    movingWall
    {
        type            zeroGradient;
    }
    fixedWalls
    {
        type            zeroGradient;
    }
    frontAndBack
    {
        type            empty;
    }
    defaultFaces
    {
        type            empty;
    }
}


// ************************************************************************* //
