/*--------------------------------*- C++ -*----------------------------------*\
  =========                 |
  \\      /  F ield         | OpenFOAM: The Open Source CFD Toolbox
   \\    /   O peration     | Website:  https://openfoam.org
    \\  /    A nd           | Version:  8
     \\/     M anipulation  |
\*---------------------------------------------------------------------------*/
FoamFile
{
    version     2.0;
    format      ascii;
    class       volScalarField;
    location    "0.05";
    object      p;
}
// * * * * * * * * * * * * * * * * * * * * * * * * * * * * * * * * * * * * * //

dimensions      [0 2 -2 0 0 0 0];

internalField   nonuniform List<scalar> 
424
(
-8.23536e-07
0.0549712
0.0135835
0.118063
0.095693
0.24763
0.102358
0.0549621
0.277531
0.495529
0.478907
0.491787
0.0114004
-0.150529
0.508099
0.749791
0.508289
0.513955
-0.422006
-0.184097
0.749222
1.00247
0.672855
0.673571
-0.674199
-0.436614
-0.380926
-0.39633
0.988411
1.26987
1.47591
1.53831
0.850195
0.848276
-3.52156
-0.889021
-1.11166
-1.38906
-0.676908
-0.412367
-0.417515
1.23573
1.42958
1.52553
1.41536
1.00686
1.0045
-2.88776
-2.65094
-0.887312
-1.12253
-1.18071
-0.576926
-0.578146
1.43281
1.47055
1.0254
1.02162
-2.269
-1.12634
-0.759575
-0.757268
1.51793
1.67542
-1.05163
-0.62145
-0.946302
-0.945246
1.92537
1.70871
-0.0206917
-0.598886
-1.01233
-1.03654
2.18168
1.93776
1.89823
1.91144
0.728291
0.00849214
4.37588
2.40409
1.47382
2.10452
2.68241
5.25511
2.8857
2.61761
2.17946
1.943
1.94874
0.733686
-0.386758
3.94777
2.39744
1.45936
2.08228
2.56929
4.53656
2.64146
2.62747
2.10505
2.10579
-0.162748
-0.412557
2.29276
2.29031
0.393118
-0.163123
2.48809
2.49279
0.979229
0.39255
2.57519
2.606
1.56097
0.978197
1.82256
1.55611
1.84069
0.130957
0.0406016
0.0477974
0.0787919
0.0945834
0.165924
-0.0272871
0.0103169
0.224485
0.318111
0.333337
0.151111
0.177709
0.21918
0.336129
0.303742
0.294922
0.4454
0.461582
0.446427
0.0654385
-0.000491749
0.0703711
0.0359174
-0.016297
-0.0625859
-0.0402465
-0.160878
-0.0822128
-0.189113
0.000933293
0.0449817
0.0690878
0.113952
0.305918
0.169846
0.363383
0.353383
0.490722
0.511357
0.583971
0.513412
0.599089
-0.0308646
-0.0330931
-0.18597
-0.202754
-0.231956
-0.267408
-0.271629
-0.0485035
-0.281727
-0.0948443
-0.233401
0.643095
0.639049
0.751034
0.783346
0.679177
0.784452
-0.293698
-0.28163
-0.439157
-0.338936
-0.401491
-0.381323
-0.348946
0.885754
0.885149
0.985859
0.95834
1.05254
0.853797
0.943812
-0.546835
-0.672312
-0.503749
-0.554944
-0.419946
-0.515273
1.13594
1.15071
1.2072
1.21795
1.27454
1.22129
1.1096
1.18322
1.00482
1.08283
-0.788806
-0.883649
-0.69634
-0.776899
-0.583085
-0.70055
1.32539
1.30432
1.3173
1.35459
1.40201
1.38615
1.38249
1.38612
1.39076
1.49785
1.50037
1.44977
1.1847
1.27087
1.03852
1.18549
1.35379
1.38437
1.45394
-1.2654
-1.65517
-2.50197
-2.08802
-1.01829
-1.11731
-1.2315
-1.01888
-0.868135
-0.93543
-0.764266
-0.870023
-1.14725
-1.25489
1.50176
1.44759
1.45841
1.4528
1.51795
1.45793
1.46853
1.51759
1.56268
1.58835
1.68702
1.3404
1.43588
1.5117
1.49516
1.13841
1.26322
-1.48763
-1.41871
-1.63496
-1.23535
-1.08026
-1.10405
-1.14902
-1.00614
-1.07055
-0.942594
-1.01917
-0.854676
-1.19494
-1.101
-1.07426
-1.11789
-1.22079
1.56626
1.62303
1.69904
1.55627
1.73549
1.73051
1.76237
1.7854
1.56427
1.77371
1.61189
1.73803
-0.817893
-0.723187
-0.9411
-0.594358
-0.698818
-0.564768
-1.09599
-1.10541
-0.746695
-0.75685
-1.02301
-1.12664
-1.03851
-1.07746
-1.24117
-1.17202
-1.0509
-0.753281
1.77593
1.78997
1.94083
1.86882
1.91341
1.88607
1.87281
-0.395498
-0.399264
0.0271417
-0.357075
-0.0567902
-0.411716
-0.344873
-1.40077
-1.31497
-1.08187
-1.21417
-1.15629
-1.51023
-1.48566
-1.19798
2.06703
2.18187
2.01572
2.06493
1.94683
2.03
0.311356
0.738158
0.073763
0.327552
-0.160601
0.145238
-1.13427
3.71443
4.06674
2.31327
2.39273
2.1887
2.3108
2.11142
2.20103
1.1467
1.45221
0.80601
1.13719
0.417325
0.792399
2.57844
3.13395
2.5337
2.62164
1.88885
2.07565
2.3738
2.7388
3.01101
2.74795
3.21755
2.65028
2.5246
2.40088
2.47263
2.29176
2.39321
1.90379
1.44087
1.52922
0.981525
1.35571
2.28348
2.92138
2.65902
2.62053
2.17939
2.20515
2.79791
2.68006
2.70139
2.67882
2.58136
2.59596
2.479
2.58925
1.79184
2.0381
1.56976
1.77233
2.39696
2.65502
2.62627
2.64325
2.15858
2.35988
2.76893
2.63483
2.6742
2.59417
2.669
1.84534
2.12318
2.62701
2.97743
2.88868
2.53056
2.56605
3.09533
3.0586
2.63785
2.55872
)
;

boundaryField
{
    movingWall
    {
        type            zeroGradient;
    }
    fixedWalls
    {
        type            zeroGradient;
    }
    frontAndBack
    {
        type            empty;
    }
    defaultFaces
    {
        type            empty;
    }
}


// ************************************************************************* //
