/*--------------------------------*- C++ -*----------------------------------*\
  =========                 |
  \\      /  F ield         | OpenFOAM: The Open Source CFD Toolbox
   \\    /   O peration     | Website:  https://openfoam.org
    \\  /    A nd           | Version:  8
     \\/     M anipulation  |
\*---------------------------------------------------------------------------*/
FoamFile
{
    version     2.0;
    format      ascii;
    class       surfaceScalarField;
    location    "0.05";
    object      phi;
}
// * * * * * * * * * * * * * * * * * * * * * * * * * * * * * * * * * * * * * //

dimensions      [0 3 -1 0 0 0 0];

internalField   nonuniform List<scalar> 
662
(
-2.03015e-05
1.61371e-05
4.16448e-06
2.07701e-05
-4.10716e-05
-8.80526e-05
3.59132e-05
6.82766e-05
-1.73761e-05
2.15406e-05
-0.000152119
8.4836e-05
1.04144e-05
-5.14859e-05
9.37272e-05
-7.51902e-05
-2.26008e-05
4.41414e-05
-0.000180952
3.92477e-05
1.72343e-06
-5.32094e-05
2.20161e-06
-0.000121808
-4.69201e-06
0.000124298
-3.42253e-05
3.6427e-05
0.000164373
-9.32468e-05
5.59579e-05
-1.18166e-05
-0.000183926
4.69803e-06
-7.67053e-07
-5.24423e-05
1.15369e-06
-0.000116953
-6.00795e-06
-3.30717e-05
5.76788e-05
-1.7209e-06
0.000196082
-4.35252e-05
-0.000181937
-2.75693e-06
-2.22603e-06
-5.02163e-05
3.65732e-06
-0.000103324
-1.72862e-05
-2.94143e-05
5.74203e-05
2.58543e-07
0.000198776
-4.41506e-06
-1.52377e-06
0.000123283
-0.000123487
1.72796e-06
3.45748e-05
-3.60986e-05
-0.000177505
-6.658e-06
-4.10566e-05
-9.15968e-06
-2.18995e-05
-1.91571e-05
-1.71576e-05
-4.74193e-06
4.83256e-06
-8.81011e-05
-2.00558e-05
-2.45818e-05
-0.000141471
-0.000756507
0.000897978
6.06916e-05
-3.27133e-06
8.9817e-05
-2.91253e-05
-5.16538e-05
0.00019949
-4.55144e-07
-4.22693e-07
0.000120513
3.19192e-06
3.41521e-05
-0.00015323
-3.34339e-05
-9.62644e-05
-7.61231e-05
-4.39668e-05
-6.94552e-05
2.21439e-05
-2.68859e-05
3.4548e-06
-7.67872e-05
-1.47688e-05
-2.1127e-05
-0.000390628
0.000705365
-0.00107124
-0.000953899
0.00185188
0.000216943
-2.07241e-05
0.000293641
-0.000105824
-0.00014864
-3.58877e-06
0.000106886
1.72159e-05
3.05634e-05
-0.000116375
9.45517e-05
2.7273e-05
-5.41589e-05
-2.77176e-07
-3.90826e-07
-7.61192e-05
-2.14042e-05
0.00135488
-0.00160341
-0.000107469
0.00195935
-4.16306e-06
9.28295e-05
1.82198e-05
2.64003e-05
-0.000197903
0.000108801
-6.59086e-05
1.17497e-05
0.00161593
-0.000368522
0.00199293
-3.35828e-05
-2.85445e-06
8.0092e-05
1.5592e-05
2.35459e-05
-6.82303e-05
2.32172e-06
-0.000228715
4.2562e-05
0.00199102
1.90876e-06
0.0017113
-0.000128952
-5.42535e-06
2.96396e-05
5.58777e-05
1.81205e-05
-6.76562e-05
-5.74066e-07
-0.000232884
6.49088e-06
-1.71999e-08
-0.000112325
0.000108889
3.45302e-06
-3.15517e-05
3.15345e-05
0.0019611
2.99159e-05
0.00173151
-1.82984e-05
-0.00180572
0.000950129
0.000855587
-6.82169e-05
5.60634e-07
0.00191696
4.41429e-05
0.00187817
3.87937e-05
7.24504e-05
0.000156753
0.000793376
9.93673e-05
5.73856e-05
3.11505e-05
-0.000233604
1.45483e-07
-4.12174e-07
-0.000113067
1.15415e-06
-3.19639e-05
0.00171192
4.95004e-05
-0.000172032
-7.87462e-06
4.15496e-05
0.000138357
-0.0013639
0.000783616
0.00143587
-0.000244646
1.16024e-05
0.0016714
8.46623e-05
0.00158403
0.000126169
0.000292581
0.000416233
0.00116076
0.000321837
0.000151782
0.000108342
-8.56399e-08
-0.00011197
-1.01097e-06
-3.20495e-05
-0.000179533
-1.51403e-06
9.01515e-06
-5.33008e-05
4.54262e-05
4.77268e-07
-0.000109866
-2.58197e-06
-3.15722e-05
-0.000164401
4.63866e-06
-1.97712e-05
-5.48148e-05
1.66012e-06
-9.96869e-05
-1.18388e-05
-2.99121e-05
-0.000142552
7.19479e-06
-2.9044e-05
-5.01762e-05
7.86565e-06
-4.25109e-05
-6.50416e-05
-2.20464e-05
-0.000127591
4.22752e-06
-1.91884e-05
-4.29814e-05
3.91878e-06
-2.01362e-05
-0.000111373
-3.87539e-05
-3.48351e-05
0.000501452
-0.000416615
-0.000139655
0.000207932
0.000361796
0.000132742
-0.000956779
0.000520022
0.000436757
-0.000538178
-0.000418602
-0.000667174
0.00037138
0.000295794
-0.000147152
-0.000749558
0.00021138
-0.000121589
-0.000627969
-0.000367556
0.000245966
0.000210593
-0.000627208
-0.000643479
0.000854072
-0.00106208
4.15676e-05
-0.000669536
-0.00102051
-0.000587961
-0.000100917
-0.00056862
-0.000372248
-0.000473164
-0.000415585
0.000548327
-0.000800283
0.00123704
-5.37886e-05
0.000115724
0.00112132
0.000487104
0.00045508
9.91778e-05
0.000387926
0.000422851
-0.000127058
0.000522029
-0.00047092
0.000343862
-0.000618071
-0.000406691
-0.000160725
3.64269e-05
0.000213481
-0.000801441
-0.000807033
-0.00137565
-0.000796743
-5.81683e-05
-0.00131748
-0.000479172
-0.00053734
-0.00024148
0.00069656
0.000879836
0.00126776
0.000653035
0.00024168
0.00102608
0.000404703
0.000117326
0.000646383
0.000184277
0.000159585
0.000301603
3.60986e-05
0.000120995
-0.000917738
-0.00119649
-0.000920495
2.97128e-05
-0.0012262
-0.000554627
-0.000524914
-0.000169615
0.00082265
0.000856467
0.000818235
0.000441816
0.000204567
0.00129828
0.000303331
0.000507898
1.38619e-05
-0.000934357
-0.00121234
-0.000941015
-0.00127395
6.16145e-05
-0.000831751
-0.000442204
-0.00054497
-0.000483355
0.000781344
3.68905e-05
0.000780889
0.001311
-1.27183e-05
0.00134789
0.000511089
0.000498371
-0.00032999
-0.000611025
-0.00116174
-0.000947224
-0.000214516
-0.000644459
-0.000391472
-0.000555752
0.000397125
-0.000611641
-0.0006997
0.000257496
-0.000302575
-0.000498124
-0.000240628
0.000919375
-0.000138485
0.00089865
0.00142349
-7.5602e-05
0.00128501
0.000515587
0.000439985
0.000308646
-0.000459906
0.000151259
-0.000302995
-0.000694467
-0.000135397
-0.000324509
0.000352605
-0.000428728
-0.000291855
-0.000847607
6.10885e-05
-0.000908695
-0.000633378
-0.000127603
-0.000301125
-0.000197058
-0.000102506
-0.000392691
9.01167e-05
-0.000241432
-0.000241019
-0.000150902
-0.000160623
-8.08088e-05
-0.00029602
-0.000134243
-0.000161778
0.00144111
-0.00158975
0.00200574
-0.000564629
0.000934498
-0.000668913
0.000856213
4.24378e-05
0.000750389
-0.000839365
-0.000832293
0.000874731
0.00135194
-6.69288e-05
0.000519644
0.000458205
0.000391276
0.000558536
-0.0013979
0.00139282
-0.000834281
0.000495136
-0.000629379
-0.000170627
-0.000462751
0.000100422
-0.000401546
0.000808274
-0.00127102
-0.000504053
-0.000438341
-0.000191038
-0.000395252
-0.000531771
9.34305e-05
2.38891e-05
-0.00055566
-0.000248426
9.75234e-05
-0.000329234
0.000491012
-0.000397582
-2.14042e-05
-0.00224381
0.00167918
-0.000850994
0.00101027
-0.00073979
-0.000111204
0.000641745
0.00124667
-0.000371943
-0.000151226
0.000656436
-0.000136792
0.000284493
0.000406868
0.000270076
0.000516927
-1.84598e-05
-0.000498467
-8.53962e-05
-0.000748884
-0.000825186
-0.000308259
0.000306533
-0.000457759
-0.000442352
-0.000866385
-0.00040464
-0.00105742
-0.00103353
-0.000799892
-0.00075733
-8.53643e-05
-0.000948169
-0.000499214
-5.64466e-05
-0.000584578
-0.000257158
-0.000140424
-0.000313605
-3.15345e-05
-0.00072883
0.000617626
-0.00074729
0.00125937
0.00113042
-0.00029038
-0.00045691
0.000485745
-0.000776125
0.000491981
-0.000207488
3.42225e-05
0.00073067
-0.000244925
0.000232203
0.000299716
9.22272e-05
0.00034009
-0.000107887
3.18312e-05
0.000227055
-0.000192832
-0.000215297
-0.000183466
-0.000379101
0.000134176
-0.000122258
-0.000825911
-0.000879587
-0.000873097
-0.000443352
-0.000141226
-0.00126926
-0.000310152
-0.000451378
0.000184567
-0.000641476
0.00131499
0.00129669
-0.00043903
-0.000337095
-0.00108051
-0.000337552
-0.000674647
0.000166225
-7.39982e-05
-2.66067e-05
-0.000210072
0.000317959
-0.000183783
1.81205e-05
-4.54262e-05
-0.000928647
5.55503e-05
-0.000928501
-0.00122991
-3.93565e-05
-0.00117436
-0.000450224
-0.00048958
0.0012812
1.54905e-05
0.0013307
-0.00101772
-6.27889e-05
-0.00100223
-0.000665632
-0.000728421
0.00117267
0.0002632
0.00233343
-0.0009153
-1.32014e-05
-0.000903698
-0.00102718
-0.000147173
-0.00104038
-0.000490591
-0.000637764
0.00132534
5.3532e-06
0.00141001
-0.00113334
0.000131113
-0.00112799
-0.000748192
-0.000617079
0.00113876
-0.000846177
0.00140196
-0.000898812
-4.88504e-06
-0.000790471
0.00126298
0.000147025
0.00138915
0.000542973
-0.00181121
0.00102074
-0.000673996
0.00207595
-0.00165943
0.00110458
-8.38398e-05
0.000865972
-0.000870857
-0.00124728
0.0002069
-0.000381312
-0.000640346
-0.000433447
0.000630591
-0.000483566
-0.00120519
7.72032e-05
-0.000574598
-0.000646123
-0.00056892
-0.000299717
0.000842691
0.00177624
0.00116762
-6.30375e-05
0.000296764
-0.000839076
0.000355511
3.61441e-06
0.000782595
0.000993642
0.000698755
0.000443959
0.000254797
0.000380921
-0.000646595
0.000265282
-0.000349831
-0.000445285
-0.000180003
-0.000771784
0.000197185
-0.000416273
-0.000588108
-0.000390923
-0.000590755
0.000594369
0.000402887
-0.000491459
0.000141627
-0.000110538
-0.000633441
0.000217168
-3.90719e-05
-0.000310867
0.00020033
-5.60704e-05
0.000346817
-0.000222514
-8.08866e-05
-0.000411059
-0.000193891
-0.0003401
0.000146209
-0.000167975
8.70881e-05
3.23549e-05
-0.000379172
-2.20464e-05
3.48351e-05
)
;

boundaryField
{
    movingWall
    {
        type            calculated;
        value           uniform 0;
    }
    fixedWalls
    {
        type            calculated;
        value           uniform 0;
    }
    frontAndBack
    {
        type            empty;
        value           nonuniform List<scalar> 0();
    }
    defaultFaces
    {
        type            empty;
        value           nonuniform List<scalar> 0();
    }
}


// ************************************************************************* //
