/*--------------------------------*- C++ -*----------------------------------*\
  =========                 |
  \\      /  F ield         | OpenFOAM: The Open Source CFD Toolbox
   \\    /   O peration     | Website:  https://openfoam.org
    \\  /    A nd           | Version:  8
     \\/     M anipulation  |
\*---------------------------------------------------------------------------*/
FoamFile
{
    version     2.0;
    format      ascii;
    class       surfaceScalarField;
    location    "0.05";
    object      phi;
}
// * * * * * * * * * * * * * * * * * * * * * * * * * * * * * * * * * * * * * //

dimensions      [0 3 -1 0 0 0 0];

internalField   nonuniform List<scalar> 
1107
(
0.000315988
-0.000643388
0.000633495
-0.000306095
0.000616968
-0.00030098
-2.96866e-05
0.000646655
0.000304963
0.000538556
-0.000106655
-0.000736864
-0.000968717
0.000630292
-9.76539e-05
0.000701462
0.000286064
-5.36025e-05
-1.49163e-05
-3.72706e-05
0.000683925
-3.30513e-05
1.43468e-05
-8.79508e-05
0.000180754
-0.000148835
-6.49702e-05
0.000300274
-0.000856384
-0.00126768
0.000599238
-0.000207458
0.000740096
0.000760959
-9.67673e-05
4.17045e-05
0.000814891
-9.5637e-05
3.58078e-06
-4.28366e-05
-1.13356e-05
0.00072563
0.000853033
2.99174e-05
-6.80589e-05
6.44731e-05
-0.000126751
-8.6557e-05
2.51488e-05
-4.86265e-05
0.000227396
-0.00014076
-0.000213387
0.00027785
-0.000115424
0.000296554
-0.000875089
-0.0015106
0.000539471
-0.000366479
0.000758259
0.000828747
-0.000185418
0.000899185
-0.000166075
5.21558e-06
-2.29033e-05
-6.11997e-06
-2.2276e-05
0.000865001
1.0308e-05
0.000755547
0.000946097
-0.000114971
0.000963371
-3.95499e-05
0.000951745
-2.39036e-05
3.553e-05
3.54032e-05
-7.27528e-05
-4.92074e-05
1.36217e-05
-2.6845e-05
-8.24027e-05
-0.00013111
0.000322166
-0.000215172
-0.000320381
0.000397172
-0.000190431
0.000306688
-0.000784604
0.000459863
-0.00166377
-0.000570317
0.000743309
0.000880828
-0.000307987
0.000968362
-0.000253609
2.9979e-06
-1.22795e-05
-3.12207e-06
8.81433e-05
0.000916797
-5.31957e-05
0.000853418
-1.23205e-05
0.000765855
0.00102597
-0.000172583
0.00105029
-6.38698e-05
0.00103944
4.63829e-05
0.000999245
0.000128339
-0.000118464
0.000932683
0.000185026
5.74525e-05
-0.000104204
-3.56511e-05
2.76048e-05
-1.93597e-05
1.04142e-05
-9.6543e-06
-0.000129771
-0.00021651
-6.19207e-05
-0.000172055
0.000691159
-0.000801613
0.000902239
-0.000466916
0.00101076
-0.000362135
2.20823e-06
-4.07362e-06
-9.13839e-07
0.000865575
-6.72424e-05
0.000823891
-2.36693e-05
0.000753535
0.000822767
-0.000147352
0.000257268
0.00107936
-0.000241179
0.00111038
-9.48945e-05
0.00110204
5.47244e-05
0.00105796
0.000172417
0.000974263
0.000268727
4.56531e-05
-3.06103e-05
-7.69635e-05
2.44427e-05
-1.44407e-05
1.14689e-05
-6.3859e-06
4.27977e-06
-2.46519e-06
0.000877127
-0.000652884
0.00100505
-0.000490056
8.82677e-07
-6.76522e-07
-3.11635e-08
0.00033406
0.000669968
-0.000181262
0.000790561
-7.23379e-05
0.00078558
-2.89313e-05
0.000729865
0.000827078
0.000404453
0.000622589
0.000538549
0.000388255
-0.00129501
0.00152934
0.00108411
-0.000320244
0.00112387
-0.000134649
0.00112263
5.5956e-05
0.00107726
0.000217788
0.000974832
0.00037116
-3.58726e-05
-5.57988e-05
6.10611e-05
-1.92696e-05
-3.10437e-05
-9.09337e-06
-1.65621e-05
-3.38041e-06
-8.17816e-06
-6.70719e-07
-3.38621e-06
-7.01884e-07
0.000988104
0.000345319
-0.000945168
0.000371491
-0.000996532
0.000688026
-7.87264e-05
0.000739081
-2.58385e-05
0.000700934
0.000793212
0.000586072
0.000547403
0.000784358
0.000411805
0.00166494
0.000483202
0.000916706
-5.78675e-05
-9.54115e-05
9.74803e-05
-3.13243e-05
-5.75869e-05
-1.47837e-05
-3.31027e-05
-5.47251e-06
-1.74893e-05
-1.09557e-06
-7.76315e-06
-1.79746e-06
0.000101615
0.000300498
-5.67946e-05
0.000227718
-0.000801394
0.000357801
-0.000666307
0.000680868
-2.05135e-05
0.000675096
0.000415636
0.000169181
-4.45863e-05
-0.000125296
7.44706e-05
-2.45077e-05
-7.76656e-05
-1.17924e-05
-4.5818e-05
-4.48604e-06
-2.47957e-05
-9.72591e-07
-1.12766e-05
-2.77005e-06
0.000246604
0.000202748
-0.000148853
0.000201237
-3.03145e-05
0.000136207
-0.0005798
0.000342992
-0.000328431
0.000654582
0.000297383
0.000364857
-1.47156e-05
-0.000134137
2.35568e-05
-8.34071e-06
-8.40405e-05
-4.12843e-06
-5.00303e-05
-1.65639e-06
-2.72678e-05
-4.04291e-07
-1.25287e-05
-3.17434e-06
0.000150043
0.000136267
-8.35617e-05
0.000128964
-7.658e-05
0.000120937
-1.50447e-05
6.99974e-05
-0.000306806
0.000326151
0.000201574
0.000245851
1.40262e-05
-0.000122462
-2.57007e-05
7.12859e-06
-7.71429e-05
3.17705e-06
-4.60788e-05
1.12107e-06
-2.52118e-05
1.8027e-07
-1.15879e-05
-2.99407e-06
0.000129829
7.87385e-05
-7.23014e-05
8.58538e-05
-4.04516e-05
7.41253e-05
-2.9768e-05
5.93271e-05
-4.37438e-06
1.93452e-05
0.000119721
0.000211683
-8.91103e-05
5.98456e-05
0.000148985
1.62439e-05
-3.57925e-05
-0.000102914
7.59044e-06
-6.84894e-05
3.24535e-06
-4.17337e-05
1.17103e-06
-2.31375e-05
2.25491e-07
-1.06424e-05
-2.76858e-06
3.84114e-05
-4.87831e-05
4.8529e-05
-3.49765e-05
4.89836e-05
-1.531e-05
3.53959e-05
-5.8368e-06
1.49708e-05
-5.21464e-05
2.39637e-05
8.80284e-05
-3.1835e-05
5.76119e-05
-6.75106e-05
-1.25391e-05
-4.24334e-05
-2.8112e-06
-2.03702e-05
-5.57978e-06
1.44965e-05
-2.82316e-05
2.3077e-05
-2.33311e-05
2.7189e-05
-1.31819e-05
2.3168e-05
-3.08207e-06
9.13397e-06
4.9618e-06
-2.57418e-05
4.47436e-05
-2.07473e-06
7.03686e-06
7.23068e-06
-1.21928e-05
-1.29575e-05
5.59415e-05
-6.33542e-05
-1.85372e-05
-1.87746e-06
-8.20152e-06
1.50408e-05
2.35564e-06
-1.36009e-05
8.20728e-06
-1.33619e-05
1.26249e-05
-8.767e-06
1.27e-05
-2.71399e-06
6.0519e-06
1.54292e-06
4.35103e-06
-7.96868e-06
-5.00921e-07
3.45235e-06
4.08547e-06
-1.88246e-06
8.45065e-06
-1.68031e-05
1.02349e-05
-3.05554e-06
-3.50944e-07
1.52902e-06
-1.75656e-06
-4.08932e-06
9.14114e-07
-6.30771e-06
4.23995e-06
-4.97692e-06
5.78044e-06
-1.8474e-06
3.33791e-06
3.47033e-06
1.68826e-06
-3.61566e-06
1.65999e-06
2.19013e-06
1.14991e-07
1.45489e-06
-7.50426e-07
3.03757e-06
6.16349e-06
-2.67415e-06
4.80007e-06
-2.38247e-05
2.16988e-05
-2.14492e-06
2.14e-06
-3.05062e-06
-2.20668e-06
9.91923e-08
-1.39316e-06
-1.78204e-06
2.46943e-07
-2.3147e-06
1.84309e-06
-1.03958e-06
1.49051e-06
3.80471e-06
-3.39428e-07
5.04604e-09
2.63614e-06
7.121e-07
1.32707e-06
9.7806e-07
2.40142e-07
4.64323e-07
-1.9998e-07
5.63398e-07
-5.80878e-07
5.38095e-06
-1.1988e-06
1.71863e-06
-2.66474e-06
-1.38742e-06
1.32076e-06
-1.46172e-06
1.67752e-07
-9.26104e-07
-6.08988e-07
8.49002e-09
-4.80095e-07
4.50938e-07
2.67713e-06
-2.25401e-06
3.3816e-06
2.62949e-06
-3.32755e-07
1.7838e-06
2.55357e-07
8.76329e-07
3.41876e-07
1.81518e-07
8.28237e-08
-1.74793e-08
-1.66441e-06
-9.38476e-07
1.40409e-06
-6.53229e-07
9.84471e-07
-8.31699e-07
6.90745e-07
-8.62425e-07
1.04077e-07
-4.89725e-07
-1.10772e-07
-2.91565e-08
1.48664e-06
-2.01338e-06
3.20387e-06
1.70814e-06
-1.33265e-06
1.66722e-06
-2.16169e-07
1.0656e-06
6.60839e-08
4.58894e-07
6.45011e-08
6.53436e-08
-2.43595e-06
-1.37622e-06
2.14776e-06
-1.03293e-06
-5.58757e-07
-3.3321e-07
4.85987e-07
-4.49773e-07
2.78096e-07
-4.18239e-07
3.25927e-08
-1.39927e-07
2.13011e-06
1.26088e-06
-1.90434e-06
8.27416e-07
-1.13265e-06
1.00699e-06
-6.72431e-07
9.49347e-07
-9.99177e-08
5.19592e-07
5.38499e-09
1.29845e-07
-2.89453e-06
-7.43386e-07
1.20197e-06
-1.61143e-06
-7.97699e-07
-6.02569e-07
-2.89396e-07
-1.51076e-07
1.87293e-07
-2.01652e-07
6.15111e-08
-1.07334e-07
-2.79702e-06
1.85291e-07
-2.82806e-07
1.27595e-06
-1.94286e-06
1.33634e-06
7.51954e-07
4.27848e-07
-5.53507e-07
5.3876e-07
-2.61844e-07
4.45967e-07
-2.62926e-08
1.35231e-07
-1.93277e-06
-4.22045e-07
-1.00012e-06
-4.00147e-07
-3.21611e-07
-1.1886e-07
-5.308e-08
3.87232e-08
-4.58227e-08
-1.8598e-06
1.12323e-07
7.52502e-07
7.89851e-07
3.89953e-07
1.97288e-07
-2.12034e-07
2.39669e-07
-5.55441e-08
1.08939e-07
-1.21232e-06
-2.09846e-07
-5.64279e-07
-1.57478e-07
-1.44413e-07
-2.75252e-08
-7.09817e-09
-1.15956e-06
5.95606e-08
3.82797e-07
4.27069e-07
1.60175e-07
7.10223e-08
-4.33869e-08
5.33962e-08
-6.9077e-07
-8.33529e-08
-2.66569e-07
-3.53208e-08
-3.46221e-08
-6.57083e-07
2.58736e-08
1.52783e-07
1.93976e-07
3.72241e-08
1.00084e-08
-3.30415e-07
-1.95055e-08
-6.99427e-08
-3.11712e-07
7.16986e-09
3.50466e-08
4.7232e-08
-8.9448e-08
-8.22785e-08
0.000597175
-0.00138178
-0.0010666
0.000323382
-0.000539892
0.000860662
-0.000537281
0.000540281
0.00130422
-0.000763941
0.00111379
-0.000267988
0.00157001
-0.001838
0.000503415
-0.000298199
-0.00139479
0.000630852
0.000139429
-0.000311484
-0.000400462
4.44323e-05
-0.000121396
-0.000267052
0.000331763
-0.000732225
0.00117703
-0.000845262
0.000639745
-0.000755048
0.00207386
-0.00144301
0.00023586
0.00130947
-0.00107361
0.00101127
0.00035839
0.00101898
-0.00177403
-0.000424029
-6.03346e-05
0.000230316
-0.000290651
-3.67357e-05
-0.000768961
-6.74577e-05
-0.000701503
0.0013735
-0.00144095
0.000528233
-0.0012458
0.00142757
-0.0018516
0.000353958
0.000886655
-0.000532697
-0.00124505
0.00075499
-0.00137843
0.00105818
-0.000623438
0.000989109
-0.0022349
-0.00086249
0.000861151
0.000803792
0.00177786
-0.000412564
0.000998636
-0.00149281
0.00135816
-0.000434625
-0.00116139
0.000748825
-0.000790229
-0.00132393
0.00137989
3.42268e-05
-0.0012924
0.000502171
-0.00107461
0.000305278
-0.000193171
0.000132747
-0.000325918
-0.000568756
0.000280928
-0.000849684
-0.00116002
0.000201895
-0.00136192
-0.00203301
0.00114218
-0.00200467
-0.000609487
-1.39508e-05
-0.000665611
0.000230986
-0.000679562
-2.59595e-05
-0.00200705
-0.00203063
-0.000900922
0.00170471
-0.000116564
0.000882073
0.000282383
0.00149547
0.0019871
0.00166466
-2.54017e-05
0.000907474
-0.00101486
0.000989459
-0.000266035
-0.00058426
0.000618487
-0.000353274
-0.000969093
0.000703058
-0.000466922
-0.000795895
0.000328973
-0.000490617
0.00012787
-0.000251448
8.10681e-05
-0.000332516
-0.000768616
3.46414e-05
-0.000803257
-0.00132728
-0.000351431
-0.000975847
-0.00235848
0.000886473
-0.00123975
0.00020691
-0.00182372
-0.00142766
0.000187909
0.000921118
-0.00274484
-0.00143736
0.000540103
0.00144699
0.00144758
-0.00100819
0.00137305
0.000656467
0.00210346
0.000100695
0.00134688
0.00109015
4.64652e-05
0.00104369
0.000749523
0.000221174
0.000528349
0.000550147
0.000678016
-0.000749639
-0.000308959
9.88753e-06
-0.000318846
-0.00079337
-0.000349521
-0.000443849
-0.00132537
-0.000425016
-0.000900352
-0.00186238
0.00201482
-0.00182691
-0.000730022
0.00173325
-0.00248289
-9.36568e-05
0.00128824
-0.00201826
-0.000574137
-0.000616095
0.000861946
0.000756951
-0.00121087
0.00196782
0.000892595
0.00223948
0.0014084
0.000831073
0.00245209
0.00298044
-0.000633056
0.00205768
-0.00142463
0.00311595
-0.000135506
-0.000344547
0.000564746
-0.00113888
-9.41031e-05
-0.000250444
-0.000537952
-0.000119258
-0.000418694
-0.00101961
-0.000454865
0.00182209
0.000235597
-0.00172843
-0.000289836
-0.000731637
0.000967234
-0.000976191
-0.000162692
0.000647735
-0.000937571
-0.000328455
-0.00117671
0.000445071
-0.00032448
0.000536162
0.000537467
2.7514e-05
-0.000604206
0.000576692
-0.00114919
-0.00012267
0.000348415
-0.000225745
-0.000726876
-0.000700897
0.00123836
0.00126692
0.00209799
-0.000341592
-0.000807603
-0.00176622
0.00121655
0.000881443
0.00108104
-0.000685175
-0.000286237
0.000394533
-0.000557225
-0.000675902
0.000221037
-0.000281369
-0.000125795
-0.000160442
-0.000544488
-0.000323451
-0.0012591
0.000321533
-0.00029187
-0.000607461
0.000315591
-0.000162389
-0.000502539
-5.46864e-05
0.000830994
-0.000509461
-0.000675125
0.000512736
-9.84336e-05
0.000368091
-1.96755e-05
0.000269657
-0.00021899
0.000199314
1.70937e-05
0.000144272
-0.000161366
-0.000201896
-0.000427641
-0.000258577
-0.000169064
-0.000112592
0.000261577
0.000423571
-0.000148447
0.000572017
0.00108992
0.000316344
-0.000574922
-0.000410532
-0.00121813
0.000469111
0.000620806
-0.000665379
-0.000552755
0.00135055
-2.15239e-05
0.000109552
0.000240053
0.000113791
-0.000274233
-1.08775e-05
-0.000465704
0.000184335
-0.00052039
-0.000100907
-0.000173326
-0.000424359
-0.000240024
0.000482682
3.00538e-05
-0.000798273
0.000288812
-0.000531161
1.07712e-05
-0.000242349
-0.000300117
0.000330171
-0.00034575
4.56327e-05
-7.60928e-05
-0.000238163
0.00016207
-3.88488e-05
-0.000131646
9.2797e-05
1.26264e-05
5.48693e-06
2.43003e-05
-2.97873e-05
1.27176e-05
-2.39837e-05
4.82841e-05
6.95869e-05
-9.35706e-05
8.22133e-05
-4.67925e-05
-4.67782e-05
-0.000208158
-2.4161e-05
-5.62624e-06
-7.09392e-05
-1.7819e-05
-0.000101967
-0.000106192
-0.000271031
-0.000103851
-0.000167179
-0.000678773
-9.38844e-05
0.000333937
0.000478133
0.00109894
-0.000442371
-0.000236402
0.000995126
0.000103814
1.85487e-05
2.6195e-05
0.000128101
4.63156e-05
8.17854e-05
0.000380253
5.40026e-05
-0.000227328
1.3508e-05
-7.32541e-05
-0.000154074
-0.000313278
-0.000302507
-0.000234566
-6.79411e-05
-0.000476915
-0.000146744
0.000191503
-2.94326e-05
-0.000237136
9.03916e-05
5.33005e-05
2.89127e-05
0.000146098
0.000116665
4.08578e-05
7.42631e-06
6.97705e-05
1.76612e-05
-4.89414e-05
-2.19978e-05
-0.000155133
-2.29539e-05
5.1348e-06
-4.49516e-05
-2.8339e-06
1.50742e-05
-3.33752e-08
4.12692e-05
-0.00010283
-5.23031e-05
-0.000270009
-0.000148061
-0.000121949
-0.000384463
0.000340947
3.93057e-05
0.000444761
6.02978e-05
9.22481e-06
3.20444e-05
9.10101e-05
0.000130316
9.68502e-05
-2.70797e-05
0.000213515
-0.000235966
8.18915e-05
-0.000303907
-1.85372e-05
-5.38095e-06
-7.96564e-06
7.93228e-06
-6.43657e-06
-4.04975e-05
-4.45413e-06
-9.28006e-05
-1.26213e-05
9.7874e-06
-1.70754e-05
6.17172e-06
1.12539e-05
-3.32161e-06
4.32983e-05
-7.47391e-05
-1.80616e-05
-0.000196688
-0.00013639
3.31767e-05
1.01216e-05
0.000163493
2.71028e-05
-8.25305e-06
4.93144e-06
5.0134e-06
-8.06399e-06
-1.42317e-06
-9.67623e-06
-7.56962e-07
-7.30702e-06
-3.42167e-06
-3.01482e-05
1.30728e-05
-4.82098e-05
-1.7986e-06
7.97031e-06
1.12741e-05
7.97535e-06
1.30016e-05
-8.07017e-06
2.31232e-05
3.04699e-05
-7.34671e-06
-5.75727e-05
9.36288e-06
-4.16208e-07
-9.26002e-06
-8.48636e-06
-2.48256e-06
-4.82446e-06
-1.17425e-05
-2.01756e-06
-6.842e-06
2.74818e-06
8.52596e-06
1.21111e-05
-4.19499e-06
7.57658e-06
3.78036e-06
1.23063e-05
-2.43e-06
-6.05637e-06
-9.77671e-06
-1.1029e-05
1.25224e-06
1.0821e-06
8.18177e-07
6.7584e-06
4.02206e-06
-8.03476e-06
-3.70778e-06
-1.40911e-05
-4.69422e-06
-8.402e-06
5.04988e-07
6.25342e-06
1.28113e-05
1.38934e-05
-1.27679e-05
-1.32326e-06
1.15156e-05
2.37778e-06
2.11774e-06
8.37115e-06
-7.20003e-06
-8.52329e-06
-8.80609e-06
6.4283e-06
)
;

boundaryField
{
    movingWall
    {
        type            calculated;
        value           uniform 0;
    }
    fixedWalls
    {
        type            calculated;
        value           uniform 0;
    }
    frontAndBack
    {
        type            empty;
        value           nonuniform List<scalar> 0();
    }
    defaultFaces
    {
        type            empty;
        value           nonuniform List<scalar> 0();
    }
}


// ************************************************************************* //
