/*--------------------------------*- C++ -*----------------------------------*\
  =========                 |
  \\      /  F ield         | OpenFOAM: The Open Source CFD Toolbox
   \\    /   O peration     | Website:  https://openfoam.org
    \\  /    A nd           | Version:  8
     \\/     M anipulation  |
\*---------------------------------------------------------------------------*/
FoamFile
{
    version     2.0;
    format      ascii;
    class       volVectorField;
    location    "0.05";
    object      U;
}
// * * * * * * * * * * * * * * * * * * * * * * * * * * * * * * * * * * * * * //

dimensions      [0 1 -1 0 0 0 0];

internalField   nonuniform List<vector> 
424
(
(-0.00293544 -0.000189693 6.81204e-26)
(-0.0146448 0.000961319 0)
(-0.0130969 0.00276669 2.04622e-23)
(0.000179263 0.00315013 -1.16637e-24)
(-0.0473288 0.00514491 -2.47685e-23)
(-0.0230339 0.000844282 -3.38778e-23)
(-0.00299319 0.0138242 3.23254e-24)
(-0.000995076 0.015498 -7.91818e-25)
(-0.0686996 0.00259368 -3.61305e-23)
(-0.0257534 0.000296765 3.10974e-23)
(-0.0702898 0.00228147 9.6359e-23)
(-0.0240275 0.000465652 0)
(-0.00519516 0.0502969 1.16854e-24)
(-0.000963317 0.0244756 0)
(-0.074402 0.000564747 3.30255e-23)
(-0.0255696 -4.08012e-05 1.75107e-23)
(-0.0590209 0.000688898 0)
(-0.0196398 7.80708e-05 0)
(-0.000341357 0.0271005 0)
(-0.00267585 0.0732222 -2.78471e-23)
(-0.0733652 4.79741e-05 3.49539e-23)
(-0.0258084 -0.000338585 -1.87542e-23)
(-0.0572924 0.000236459 0)
(-0.0196288 5.6005e-05 0)
(1.31885e-05 0.0260316 1.307e-23)
(-0.000172981 0.0780917 2.51296e-23)
(-0.00233232 0.06842 -3.74585e-23)
(-0.00041793 0.0233008 -3.8897e-23)
(-0.0750443 -0.000327413 5.88722e-23)
(-0.0232294 -0.000847712 0)
(-0.0150262 -0.00096912 -1.31691e-22)
(-0.00303815 0.000215372 0)
(-0.0530265 -1.91634e-05 -1.05687e-22)
(-0.0180472 3.8255e-05 9.88288e-23)
(-0.0222837 0.04793 6.83824e-23)
(0.000239839 0.0267873 0)
(0.000145612 0.0295758 -2.27064e-22)
(0.00335095 0.0631382 2.33917e-22)
(8.24373e-05 0.0746255 2.79503e-23)
(-0.000419289 0.0600858 3.92266e-24)
(-6.80925e-06 0.01999 -3.85032e-24)
(-0.0699566 -0.00256742 -1.05443e-22)
(-0.0489654 -0.00549117 1.33511e-22)
(-0.0140973 -0.00310026 0)
(0.000223632 -0.00336334 -2.95524e-22)
(-0.0494506 -0.000265373 3.47002e-22)
(-0.0162155 -3.37282e-05 0)
(-0.10605 0.152673 -1.89066e-22)
(0.809203 0.027842 -5.01873e-23)
(-0.00069603 0.078135 -1.62206e-23)
(-0.00573223 0.0866173 0)
(-0.00507545 0.166823 -3.6159e-24)
(-0.000244405 0.0579164 0)
(-4.43824e-05 0.0199091 0)
(-0.00399884 -0.0151917 5.94387e-23)
(-0.00125605 -0.0170608 2.58432e-22)
(-0.0530914 -0.000628968 0)
(-0.0174684 -0.000155099 0)
(0.405634 0.118727 1.41488e-22)
(0.861369 -0.00378852 -1.19179e-23)
(0.000144628 0.0544377 -9.27339e-23)
(-8.90011e-06 0.0187149 8.79016e-23)
(-0.00670899 -0.0543972 0)
(-0.00104134 -0.026796 0)
(0.551411 0.0129183 1.5645e-22)
(0.882717 -0.00213958 0)
(0.000407785 0.0515852 -7.97542e-23)
(9.87223e-05 0.0174679 7.33928e-23)
(-0.000335058 -0.0292823 6.02642e-23)
(-0.00298165 -0.0789844 -1.85949e-23)
(0.880704 -0.00128596 -1.38262e-23)
(0.626334 0.0020605 -1.15924e-22)
(-0.00228655 0.055852 0)
(-0.000204843 0.0209767 0)
(7.71764e-05 -0.0288727 4.72759e-23)
(-0.000366329 -0.0834409 1.91046e-23)
(-0.00189814 -0.065868 -3.97191e-22)
(-0.000343292 -0.0224263 0)
(0.879083 -0.000317052 1.30619e-23)
(0.63696 -0.000767774 -4.91284e-23)
(0.826677 -0.0267491 0)
(0.000338102 -0.0288104 -9.09952e-23)
(0.88176 0.00140741 0)
(0.886699 0.00204237 0)
(0.865832 0.00377288 0)
(-0.0195217 -0.0491241 0)
(0.00355502 -0.0682991 -4.80764e-22)
(0.000174496 -0.0308196 5.95656e-22)
(0.000290616 -0.0821314 4.36571e-23)
(-0.000559506 -0.0576979 0)
(-3.68881e-05 -0.019236 0)
(0.639115 -0.000725912 -2.08436e-23)
(-0.104768 0.0018684 -4.20493e-23)
(0.447576 -0.115195 9.64673e-22)
(-0.000517691 -0.0839115 -8.9126e-23)
(0.641597 0.00131777 -1.23719e-22)
(0.643123 -0.0013975 2.57368e-22)
(0.570017 -0.010837 -1.24184e-21)
(-0.108402 -0.154011 -1.80902e-22)
(-0.00645007 -0.179366 7.01035e-22)
(-0.00653643 -0.0904666 -5.69188e-22)
(5.52565e-05 -0.0573004 -3.0973e-23)
(3.51781e-05 -0.0196839 3.00375e-23)
(-0.0932343 5.76993e-05 0)
(-0.0405171 -4.36071e-05 -4.09698e-23)
(0.000387472 -0.0593965 -1.384e-22)
(6.08695e-05 -0.0204815 -1.31588e-22)
(-0.0956387 -0.000318237 2.40219e-23)
(-0.0338726 6.21459e-06 0)
(-6.39605e-05 -0.0579523 9.95369e-23)
(8.55337e-05 -0.0199377 -9.489e-23)
(-0.0893708 -0.000141646 -2.48818e-22)
(-0.0351918 -0.000111266 -2.27454e-23)
(-0.00299923 -0.0605531 0)
(-0.000220686 -0.0234886 0)
(-0.0824311 0.000298021 1.35981e-22)
(-0.0326901 -6.71809e-05 0)
(-0.0935745 -0.00161832 0)
(-0.0294588 -9.40932e-06 1.21636e-22)
(-0.0350982 -0.000114534 0)
(-0.0796838 0.017093 2.51303e-24)
(-0.0236438 0.0118408 0)
(-0.063642 0.0352144 0)
(-0.0121471 0.0248651 -1.84808e-24)
(-0.129896 0.107017 2.70392e-23)
(-0.157569 0.0740782 4.77066e-22)
(-0.0863681 0.136026 3.60202e-23)
(-0.107414 0.116522 -1.32953e-23)
(-0.154396 0.062474 -8.02791e-22)
(-0.159165 0.0372915 -2.63878e-23)
(-0.136422 0.0285225 -7.20495e-22)
(-0.122823 0.0288129 -1.92547e-22)
(-0.14635 0.0477091 -6.42663e-22)
(-0.166085 0.0511459 8.3898e-22)
(-0.172956 0.0243066 -6.00076e-22)
(-0.180374 0.0268078 1.08097e-22)
(-0.111946 0.00669459 1.81298e-22)
(-0.165108 0.00739233 1.24471e-21)
(-0.109371 0.00548999 2.62603e-22)
(-0.136066 0.00295434 3.40093e-22)
(-0.036771 0.0644675 2.98777e-23)
(-0.103629 0.113163 0)
(-0.0717768 0.068042 -2.47319e-23)
(-0.101835 0.0915343 0)
(-0.0735225 0.138906 5.30159e-23)
(-0.0750406 0.148056 -1.36526e-22)
(-0.0193234 0.0863332 -2.99255e-25)
(-0.0500889 0.16498 2.19489e-22)
(-0.0697192 0.133843 -4.78483e-23)
(-0.0472118 0.157437 2.86928e-22)
(-0.0615565 0.103805 -5.7713e-23)
(-0.0974715 0.0922092 -2.77339e-23)
(-0.108707 0.0661773 0)
(-0.0950392 0.035961 1.22413e-22)
(-0.0232769 0.00244596 -2.99235e-22)
(-0.0654189 0.0141441 3.4523e-22)
(-0.160586 0.0087044 0)
(-0.17959 0.00903944 0)
(-0.188042 0.00221132 -8.63544e-22)
(-0.124709 0.000722572 -1.54638e-21)
(-0.181699 0.00213063 2.80035e-21)
(-0.102191 0.00153728 7.08743e-22)
(-0.144431 -0.000259655 7.39579e-22)
(-0.0348996 0.13152 -2.11696e-23)
(-0.0442927 0.153451 2.0621e-23)
(-0.0339102 0.177946 -2.34688e-22)
(-0.00639771 0.118341 7.74759e-22)
(-0.0204636 0.182712 1.15945e-22)
(-0.0260231 0.150673 4.82222e-23)
(-0.0147767 0.168026 -3.0018e-22)
(-0.0335589 0.089002 1.6741e-22)
(-0.0206166 0.131503 -1.17245e-21)
(-0.0144191 0.0641968 0)
(-0.00246834 0.022879 0)
(-0.170468 -0.00096772 8.75386e-22)
(-0.187583 -0.000296504 -2.6117e-21)
(-0.127426 0.000710869 -9.19964e-22)
(-0.178867 0.000118063 2.91439e-21)
(-0.100041 -4.62087e-05 -1.15721e-21)
(-0.145288 -0.000447401 1.43857e-21)
(-0.00533006 0.164761 -6.92875e-22)
(-0.00649777 0.183199 5.23064e-22)
(0.00121304 0.128544 0)
(-0.00490005 0.15998 0)
(-0.00167912 0.187643 -1.05472e-21)
(-0.00396639 0.103262 8.01805e-22)
(-0.00037595 0.13325 0)
(-0.17027 0.00217568 8.74392e-22)
(-0.185546 0.00137881 1.9714e-22)
(-0.131472 0.000716125 1.26098e-21)
(-0.177993 -0.00155688 -1.91413e-21)
(-0.183635 -0.00332 -2.0138e-21)
(-0.0962642 -0.000686734 -2.26908e-21)
(-0.13636 -0.000602863 9.84809e-22)
(0.00380955 0.168747 7.66859e-22)
(0.000864264 0.122745 -8.12025e-22)
(-0.000314581 0.181792 2.5593e-21)
(0.00247657 0.187819 -1.97769e-21)
(-0.000652142 0.105013 0)
(0.0006279 0.145867 0)
(-0.162159 -0.00624787 -1.45068e-21)
(-0.181707 -0.00877547 0)
(-0.180244 -0.0273893 1.7653e-21)
(-0.114195 -0.00652484 1.05924e-21)
(-0.17017 -0.0354946 -1.9664e-21)
(-0.171049 -0.0328261 -3.24545e-21)
(-0.154639 -0.00740309 1.95861e-21)
(-0.161025 -0.02418 1.79043e-21)
(-0.0953962 -0.000730826 -2.94386e-22)
(-0.122605 0.000427011 0)
(-0.000569257 0.168764 -4.27435e-22)
(-0.00393607 0.132615 0)
(0.00113208 0.180458 0)
(-0.000380458 0.186174 3.26995e-22)
(-6.52338e-05 0.0990483 0)
(0.00166998 0.1443 0)
(-0.148475 -0.0653027 0)
(-0.161564 -0.0580041 -2.16168e-21)
(-0.161911 -0.0621129 2.91988e-21)
(-0.134328 -0.0871055 0)
(-0.0785973 -0.0163318 0)
(-0.127487 -0.0277297 -1.22206e-21)
(-0.146592 -0.0352045 -2.28632e-21)
(-0.134114 -0.0691023 2.80824e-21)
(-0.146052 -0.0819799 -1.47928e-22)
(-0.0647056 -0.0339197 -7.03418e-22)
(-0.0248587 -0.0119559 0)
(-0.0137858 -0.0257181 2.1484e-21)
(-0.136393 -0.0334037 7.37934e-22)
(-0.140675 -0.0566304 -1.83382e-21)
(-0.0867631 -0.0014773 -1.29966e-21)
(-0.118116 -0.0266761 1.8572e-21)
(-0.117314 -0.0718876 8.6124e-22)
(-0.120943 -0.0882162 0)
(-0.104284 -0.102011 1.57276e-21)
(-0.0302181 0.23482 3.19093e-24)
(-0.12823 0.29944 -2.98934e-21)
(-0.141206 0.223789 3.13433e-21)
(0.118547 0.186743 -2.52003e-21)
(-0.0154518 0.171844 1.44029e-21)
(-0.0177958 0.139104 -1.74394e-21)
(-0.0481671 0.207827 -8.9342e-22)
(-0.0168517 0.18382 -3.07501e-21)
(0.000771754 0.176689 -7.87797e-22)
(-0.00789501 0.181049 3.18231e-21)
(0.00109393 0.0940737 0)
(0.00223808 0.13425 2.89826e-22)
(-0.0626714 0.199672 4.2316e-21)
(-0.0997664 0.19256 -1.31937e-21)
(-0.107457 -0.119078 4.15215e-21)
(-0.128633 -0.104778 2.47837e-21)
(-0.125877 -0.106643 -3.33251e-21)
(-0.0772911 -0.0620749 5.33902e-22)
(-0.096435 -0.120714 0)
(-0.102194 -0.0866201 2.48062e-22)
(-0.0382085 -0.0628794 -3.0029e-21)
(-0.0846702 -0.141248 -5.84349e-21)
(-0.0226734 -0.0888048 0)
(-0.0697822 -0.142085 2.05127e-21)
(-0.0496717 -0.159788 0)
(-0.0788517 -0.0274412 3.18111e-21)
(-0.0956914 -0.0620117 0)
(-0.0601968 -0.105973 -4.67069e-21)
(-0.0861093 -0.0945635 1.1391e-21)
(-0.0172736 -0.00145128 1.35895e-21)
(-0.0506945 -0.00948373 -5.47221e-21)
(-0.10552 0.238386 -5.34555e-22)
(-0.127835 0.202549 0)
(0.00993222 0.194888 1.96859e-21)
(-0.13551 0.10905 -1.29744e-21)
(0.264698 0.0573561 9.58029e-22)
(-0.0273498 0.180129 2.01693e-21)
(-0.0486044 0.178351 -2.27145e-21)
(-0.00850533 0.150255 -1.66492e-21)
(-0.0187121 0.153196 2.87501e-21)
(0.000854272 0.0913204 1.3431e-21)
(-0.00632897 0.118184 -8.88839e-22)
(-0.155229 0.0189066 0)
(-0.108189 0.12599 -1.91583e-21)
(-0.139574 0.0883637 1.08979e-22)
(-0.146455 0.0485142 3.14567e-21)
(-0.0530814 0.137864 -1.22839e-21)
(-0.0850672 0.113805 1.19674e-21)
(-0.0633696 -0.147497 2.24966e-22)
(-0.0628766 -0.162487 5.05551e-22)
(-0.0471477 -0.172863 0)
(-0.0377037 -0.127792 -2.84041e-22)
(-0.00864513 -0.129563 1.90401e-23)
(-0.0279786 -0.178549 -3.58781e-21)
(-0.0307011 -0.154695 1.83871e-21)
(-0.0211917 -0.167436 -2.03161e-21)
(-0.0331894 -0.0925556 3.19138e-21)
(-0.0244107 -0.131994 -2.66092e-21)
(-0.0126009 -0.0609515 0)
(-0.00220089 -0.0213855 0)
(-0.0531238 0.057308 -4.54572e-22)
(-0.113954 0.026917 1.63255e-21)
(0.105166 0.0607154 -6.68072e-22)
(0.375367 0.0176496 1.67365e-21)
(-0.123137 0.0162534 0)
(-0.172686 0.0106358 0)
(-0.0163313 0.119061 -2.08492e-21)
(-0.0331642 0.11437 0)
(-0.163685 -0.00424896 0)
(-0.160944 0.00212956 0)
(-0.00694528 0.0858935 0)
(-0.00616836 0.097138 -9.49291e-22)
(-0.123162 0.00534837 0)
(-0.121557 0.0337652 -3.18311e-21)
(-0.0435268 0.0641633 0)
(-0.0821763 0.0683086 0)
(-0.0966407 0.040599 2.69358e-21)
(-0.150251 -0.0106188 5.67794e-22)
(-0.0119568 -0.182274 2.51297e-21)
(-0.0113635 -0.16751 0)
(0.000252396 -0.135095 -4.01936e-23)
(-0.0072826 -0.159195 0)
(-0.00350937 -0.186018 0)
(-0.00453138 -0.102045 -3.52112e-21)
(-0.00281667 -0.132065 3.21283e-21)
(-0.0442442 0.0167169 0)
(0.124723 0.0123408 -1.38817e-21)
(0.37561 0.00255124 0)
(-0.182828 0.00431993 -4.68466e-22)
(-0.15324 0.00878675 1.18347e-23)
(-0.142702 0.00536999 -2.50525e-22)
(-0.17267 0.0059976 1.3066e-22)
(-0.00427276 0.0314205 5.486e-21)
(-0.0321069 0.0258808 -1.03253e-21)
(-0.0694129 0.012284 -2.11799e-21)
(-0.0824188 -0.014245 0)
(-0.0826456 -0.00362813 0)
(0.000297208 0.00910866 1.72045e-21)
(-2.83823e-05 0.0229638 -6.50334e-21)
(-0.0635277 -0.00552973 0)
(0.00202199 -0.174939 -5.44284e-22)
(0.000380873 -0.134884 3.98481e-23)
(-0.00164428 -0.179518 -4.63196e-21)
(0.0012506 -0.1874 4.30821e-21)
(-0.00146714 -0.0997344 0)
(0.000229734 -0.143068 -5.3595e-22)
(0.0989834 -0.0026822 0)
(0.363237 -0.00154243 0)
(-0.166915 -0.00192877 4.27439e-22)
(-0.0929175 -0.00223866 -3.64866e-22)
(-0.14845 0.00022562 3.31506e-22)
(-0.182094 0.00674327 -5.5655e-22)
(-0.0244959 -0.000850183 0)
(0.131208 -0.186393 -5.76524e-21)
(-0.150145 -0.226945 9.82737e-21)
(-0.000617673 -0.172891 1.67241e-22)
(-0.00342771 -0.13739 0)
(0.000955063 -0.179105 3.94842e-21)
(-0.000662743 -0.186221 -2.87808e-21)
(0.000625092 -0.0969814 0)
(0.00241386 -0.148233 -1.02843e-21)
(0.0908725 -0.000123595 -3.84578e-23)
(0.357761 -0.00326509 -2.09547e-21)
(-0.189136 -0.00314889 -2.14084e-21)
(-0.102014 -0.000180326 -6.25753e-22)
(-0.151694 0.00168114 5.32833e-22)
(-0.189846 -0.00175638 0)
(0.26759 -0.0533139 -6.96168e-21)
(0.0263339 -0.166587 -6.40569e-21)
(-0.0150158 -0.173209 0)
(-0.0192435 -0.143728 0)
(0.131263 -0.00836087 -3.06325e-21)
(0.383092 -0.0157315 2.61083e-21)
(0.128856 -0.0594046 1.15831e-20)
(-0.0540758 -0.21272 0)
(-0.112245 -0.219765 9.19448e-21)
(-0.0350615 -0.250691 1.60223e-21)
(-0.147601 -0.306053 -2.59638e-21)
(-0.0665669 -0.195433 -1.79828e-23)
(-0.0153856 -0.183406 -3.83787e-21)
(0.00021126 -0.177903 1.65008e-21)
(-0.00636449 -0.1807 6.07313e-21)
(0.00117415 -0.106655 -3.6451e-21)
(0.000158294 -0.145166 2.36683e-21)
(-0.048031 -0.0138261 2.45572e-21)
(-0.169491 0.00266101 3.73778e-21)
(-0.164924 -0.00565895 -3.37338e-21)
(-0.143933 7.10231e-05 2.48781e-22)
(-0.174352 -0.000249836 0)
(-0.0617504 -0.0658251 -3.84537e-21)
(-0.147751 -0.173597 -2.63111e-21)
(-0.0446934 -0.175752 -6.38863e-21)
(-0.0270906 -0.177041 7.5501e-22)
(-0.126472 -0.0150535 0)
(-0.114984 -0.0285938 -9.97042e-22)
(-0.13036 -0.173435 -6.74503e-21)
(-0.0889629 -0.178194 8.70788e-21)
(-0.073516 -0.130996 6.39498e-21)
(-0.0510974 -0.1402 0)
(-0.00745123 -0.143575 0)
(-0.0175785 -0.147879 -2.51028e-21)
(-0.0014017 -0.099223 0)
(-0.00755942 -0.121804 0)
(-0.186586 0.000125343 2.82177e-21)
(-0.177137 -0.00529822 -5.44334e-21)
(-0.136655 0.00214939 -2.61894e-22)
(-0.16848 -0.00295456 -1.59649e-21)
(-0.155304 -0.0197756 5.16624e-21)
(-0.1477 -0.074225 -4.46184e-21)
(-0.0183788 -0.117565 1.50502e-21)
(-0.0341871 -0.116383 3.623e-21)
(-0.173504 0.00444098 4.46146e-21)
(-0.155579 0.00197599 -1.78854e-22)
(-0.0429662 -0.0653517 -8.00959e-21)
(-0.0769539 -0.0785602 3.85601e-22)
(-0.109572 -0.0626179 1.41767e-21)
(-0.0073584 -0.0840385 0)
(-0.00804715 -0.0945962 -2.74653e-21)
(-0.137256 -0.00455643 -2.16297e-21)
(-0.157963 0.00806989 1.53802e-21)
(-0.0879948 0.0166635 1.42686e-21)
(-0.00660147 -0.0284582 0)
(-0.0340383 -0.0215649 3.56595e-21)
(-0.102393 0.0107868 1.60374e-22)
(-0.0932195 -0.00931746 0)
(0.000153703 -0.00961605 0)
(-0.00110177 -0.0230986 0)
(-0.061226 0.00665722 -3.74753e-21)
(-0.0225827 0.00111949 2.94945e-21)
)
;

boundaryField
{
    movingWall
    {
        type            fixedValue;
        value           uniform (1 0 0);
    }
    fixedWalls
    {
        type            noSlip;
    }
    frontAndBack
    {
        type            empty;
    }
    defaultFaces
    {
        type            empty;
    }
}


// ************************************************************************* //
