/*--------------------------------*- C++ -*----------------------------------*\
  =========                 |
  \\      /  F ield         | OpenFOAM: The Open Source CFD Toolbox
   \\    /   O peration     | Website:  https://openfoam.org
    \\  /    A nd           | Version:  8
     \\/     M anipulation  |
\*---------------------------------------------------------------------------*/
FoamFile
{
    version     2.0;
    format      ascii;
    class       volVectorField;
    location    "0.087";
    object      U;
}
// * * * * * * * * * * * * * * * * * * * * * * * * * * * * * * * * * * * * * //

dimensions      [0 1 -1 0 0 0 0];

internalField   nonuniform List<vector> 
656
(
(0.743372 0.0565316 -9.65473e-25)
(0.927889 0.0140691 1.86667e-24)
(0.954788 -0.00127375 0)
(-0.0910749 0.118994 2.40002e-23)
(0.556742 0.0977245 1.12098e-23)
(0.841242 0.000939745 0)
(-0.0571798 0.0672276 -4.939e-23)
(-0.0145962 0.018846 9.85106e-24)
(0.968227 -0.000150839 0)
(-0.000504663 0.138601 -2.37829e-24)
(-0.00304959 0.193131 -7.83496e-23)
(-0.117738 0.172053 0)
(0.376006 0.139834 1.00526e-23)
(0.715019 0.00930685 0)
(0.890989 0.00127448 -1.70667e-22)
(0.906567 0.000583098 4.77898e-23)
(0.00104042 0.0823432 9.70489e-24)
(0.00137428 0.0267217 0)
(0.971852 -7.63391e-05 -3.43357e-23)
(0.913661 0.000298553 -1.43719e-22)
(-0.0123884 0.0928732 7.71106e-23)
(-0.00523408 0.0628721 0)
(-0.0239222 0.125115 1.33361e-24)
(-0.00789613 0.242543 1.53982e-22)
(-0.136115 0.223437 -1.67658e-22)
(0.210343 0.18042 -2.26587e-23)
(0.577674 0.0245875 0)
(0.8007 0.00637691 2.66449e-22)
(0.829494 0.0030322 -8.91623e-23)
(-0.00144234 0.0356645 0)
(-0.000151562 0.0114448 0)
(0.916986 0.000158359 5.13466e-23)
(0.973373 -4.69469e-05 -3.66607e-23)
(0.842959 0.00161741 1.95816e-22)
(0.849424 0.000810467 -5.18089e-23)
(0.85403 6.34873e-05 -1.08889e-22)
(-0.00677975 0.0608905 -1.05381e-22)
(-0.00280707 0.0409242 1.7071e-23)
(-0.0137926 0.0825098 -1.88325e-22)
(-0.0408483 0.158564 -1.577e-22)
(-0.01671 0.28282 1.66501e-22)
(-0.143742 0.269547 -4.77715e-24)
(0.0686489 0.217917 4.55154e-22)
(0.433182 0.0474137 0)
(0.696558 0.0162323 0)
(0.739381 0.00802645 -3.6982e-22)
(-0.00082163 0.0230279 -5.40253e-24)
(-0.000128818 0.00732299 0)
(0.854942 -0.000883154 1.20144e-22)
(0.919452 2.84533e-05 -2.78104e-23)
(0.974008 -2.02061e-05 4.92918e-24)
(0.75977 0.00435526 0)
(0.769764 0.00218545 0)
(0.776842 0.000151998 -1.06666e-22)
(0.778387 -0.00237206 4.59706e-22)
(0.763626 -0.0060432 0)
(-0.0103745 0.0366042 2.00131e-22)
(-0.00502145 0.0257397 2.95145e-22)
(-0.00202819 0.0165171 -2.87514e-22)
(-0.0250269 0.104803 -1.85263e-22)
(-0.0193443 0.0489367 5.84787e-22)
(0.28681 0.079672 -1.32799e-22)
(0.57847 0.0319868 1.75137e-22)
(0.6352 0.0165801 -5.20767e-22)
(-0.000553536 0.00884744 4.53702e-23)
(-6.7089e-05 0.0025618 6.0905e-23)
(0.84486 -0.00224245 -2.5466e-22)
(0.92 -0.00014638 8.54502e-23)
(0.974687 1.29036e-05 5.47827e-24)
(0.726768 -0.0151979 -1.16792e-23)
(0.662692 0.00911916 0)
(0.676456 0.00466447 1.93316e-22)
(0.686385 0.000386373 2.04132e-22)
(0.688969 -0.00481306 -8.82331e-22)
(0.66971 -0.012543 2.27279e-22)
(-0.00839882 0.0139349 8.88421e-22)
(-0.00405365 0.00913812 -6.83449e-24)
(-0.00182771 0.00550514 0)
(-0.000643612 0.00295304 1.0577e-22)
(0.447786 0.055828 0)
(0.516951 0.0303681 6.66113e-22)
(-8.94479e-05 0.00127333 -1.00135e-22)
(5.53251e-05 0.000241391 -3.08628e-23)
(0.604785 -0.0240905 4.71813e-22)
(0.820259 -0.00592584 1.49694e-22)
(0.914484 -0.000374941 0)
(0.97503 4.19894e-05 -5.28356e-23)
(0.619972 -0.030231 -2.88771e-22)
(0.468208 -0.0472382 7.26193e-22)
(0.251479 -0.190757 -8.79081e-22)
(0.550825 0.0170803 0)
(0.56815 0.00874863 4.66271e-23)
(0.581238 0.000992473 -1.45194e-22)
(0.585539 -0.00871516 5.11886e-22)
(0.562578 -0.0231807 -8.69611e-22)
(-0.0147911 0.0062642 3.73776e-22)
(-0.00924716 0.00306671 -3.98853e-22)
(-0.00537225 0.00139791 -1.97735e-22)
(-0.00279647 0.000480316 3.91349e-22)
(-0.00116584 4.38416e-05 4.713e-23)
(-0.00020319 -6.20621e-05 -2.84976e-23)
(-0.136728 -0.250241 5.90066e-23)
(0.411944 -0.147966 -6.13836e-23)
(0.732778 -0.00901639 -7.95845e-22)
(0.901186 -0.00112448 0)
(0.973746 0.000109573 0)
(0.499721 -0.0539484 5.52146e-22)
(0.325512 -0.0810143 -2.7733e-22)
(0.106282 -0.230036 1.02582e-22)
(-0.141409 -0.298198 1.38428e-21)
(-0.0465804 0.0112551 0)
(-0.0340209 0.00583954 1.86863e-22)
(-0.0235914 0.00285793 -6.59976e-22)
(-0.0149878 0.00114531 1.84041e-22)
(-0.00792711 0.000287613 -4.38527e-23)
(-0.00212803 2.17919e-05 -2.72268e-23)
(-0.00754393 -0.28903 0)
(-0.120665 -0.194926 0)
(0.582914 -0.103403 4.88166e-22)
(0.850386 -0.000878692 -3.99584e-23)
(0.970606 0.000203289 -1.0304e-22)
(-0.0155571 -0.332919 -1.64648e-21)
(-0.0760016 0.0100105 0)
(-0.0568623 0.00552752 1.9315e-22)
(-0.0403702 0.00276358 -1.41145e-24)
(-0.0262671 0.00117178 9.54887e-23)
(-0.0142712 0.00036038 -4.48734e-23)
(-0.00411641 7.18025e-05 0)
(-0.0276219 -0.164274 -5.51166e-22)
(-0.00296276 -0.233228 0)
(-0.094997 -0.136206 5.08316e-22)
(0.75789 -0.0597746 0)
(0.956555 0.00135216 7.64116e-23)
(-0.046678 -0.205095 0)
(-0.0980845 0.00828973 0)
(-0.0741665 0.00460896 1.20078e-22)
(-0.0531752 0.00234378 -3.48152e-22)
(-0.0349417 0.0010281 1.12646e-22)
(-0.0192397 0.000345412 5.03484e-23)
(-0.00578431 8.89846e-05 -1.68739e-23)
(-0.015655 -0.119026 2.82625e-22)
(-0.0145372 -0.123352 0)
(-0.000248184 -0.169217 -4.45518e-22)
(-0.0605237 -0.0776122 4.30418e-22)
(0.931395 -0.0147218 0)
(-0.0284336 -0.148593 0)
(-0.107004 0.00724204 1.53155e-22)
(-0.0810005 0.00408764 -1.47862e-22)
(-0.0581644 0.00207794 1.43073e-22)
(-0.038291 0.000905985 -2.73888e-22)
(-0.0211551 0.000304642 3.76655e-22)
(-0.00650422 7.86169e-05 -5.02185e-23)
(-0.0133573 -0.0678599 2.43769e-22)
(-0.0077182 -0.089098 -5.22016e-22)
(-0.00596346 -0.0840663 1.52074e-22)
(0.00181256 -0.100771 -4.6198e-22)
(-0.014189 -0.0214027 1.30993e-23)
(-0.0241149 -0.0868524 0)
(-0.0154615 -0.0452157 -5.49846e-23)
(-0.107963 0.00780879 -1.88582e-22)
(-0.081624 0.00492884 7.6012e-22)
(-0.0586938 0.00264437 -7.25765e-22)
(-0.0387753 0.00113991 0)
(-0.0215135 0.00035154 0)
(-0.00671225 7.27359e-05 -5.509e-24)
(-0.00849433 -0.0350819 1.17253e-22)
(-0.00666784 -0.0497931 3.44444e-24)
(-0.00302973 -0.0605432 3.97954e-22)
(-0.00125803 -0.0475667 -1.49542e-22)
(0.00233743 -0.0310267 0)
(-0.00873844 -0.0196306 8.91156e-22)
(-0.063276 0.00409145 8.29101e-22)
(-0.0414412 0.00257068 -8.57306e-22)
(-0.0227753 0.000908318 0)
(-0.00700818 0.000157903 -7.76626e-24)
(-0.00480656 -0.0146291 -2.36315e-22)
(-0.00418799 -0.025485 -9.16753e-23)
(-0.00273024 -0.0332931 1.89004e-22)
(-0.000643013 -0.034251 -1.29325e-22)
(0.000182381 -0.014365 4.94292e-23)
(-0.0044744 -0.00526435 0)
(-0.00270598 0.0032008 -1.02406e-21)
(-0.0505271 0.00118005 0)
(-0.0176844 0.000393814 -2.71407e-23)
(-0.001522 0.000804123 0)
(-0.00238147 -0.00358808 -2.4056e-22)
(-0.00234514 -0.0102339 -4.59275e-22)
(-0.00172135 -0.0168631 -6.24875e-23)
(-0.000724382 -0.0186274 1.27155e-22)
(7.65239e-05 -0.0106534 -4.96195e-23)
(-0.00108019 -0.000901962 2.08811e-21)
(-0.00130623 0.00154787 2.17906e-21)
(-0.0031078 0.00369373 7.0207e-23)
(-0.000132298 0.00198931 -4.81421e-22)
(-0.000749125 0.00104825 -9.82478e-25)
(-0.00111838 -0.00225129 1.24587e-22)
(-0.00095836 -0.00653678 3.71986e-22)
(-0.000484004 -0.00935155 7.62148e-24)
(-6.56822e-05 -0.00583931 -2.27909e-23)
(-0.000147375 -0.0025754 -1.8836e-24)
(-0.000453285 -0.00141138 -1.74693e-21)
(-0.000547674 0.000678842 -5.26919e-22)
(-0.00136139 0.00157874 0)
(-0.00319371 0.00914393 1.51722e-21)
(0.00038919 0.00150993 -2.58748e-22)
(-4.00873e-06 0.00176488 2.56504e-22)
(-0.000314483 0.00105884 1.28438e-22)
(-0.000440211 -0.00126605 0)
(-0.000272124 -0.00350607 -1.2192e-22)
(-6.47745e-05 -0.00293404 1.71268e-23)
(0.000229813 -0.00282401 8.27434e-22)
(1.30023e-05 -0.00241832 3.33751e-22)
(-0.000162174 -0.0014622 1.96694e-22)
(-0.000173908 0.000193254 5.36032e-23)
(-0.000334938 0.000545811 -6.14604e-23)
(-0.000459811 0.00212026 1.0924e-21)
(0.000310224 0.000534739 1.08136e-21)
(0.000248376 0.00126927 -4.0476e-22)
(2.98064e-05 0.00143264 -2.63975e-22)
(-0.000107175 0.000883816 -1.28486e-22)
(-0.000115841 -0.000584143 0)
(-3.96759e-05 -0.00106223 -1.12742e-23)
(0.000527981 -0.00205856 0)
(0.00018502 -0.00240439 -2.86303e-22)
(4.71924e-05 -0.00200879 -9.86502e-22)
(-3.7699e-05 -0.00121449 3.2149e-22)
(-2.2184e-05 -2.84122e-05 -3.58209e-22)
(-1.2499e-05 1.19462e-05 9.65592e-24)
(0.000532031 0.000192043 -4.69797e-22)
(0.000171505 0.000398901 7.16204e-22)
(0.000139508 0.000980638 -6.92981e-22)
(2.7635e-05 0.00103599 1.32346e-22)
(-1.72677e-05 0.000583926 0)
(-1.1001e-05 -0.000141968 1.11475e-23)
(0.00038889 -0.000698754 0)
(0.000316783 -0.00169615 5.50365e-22)
(0.000115031 -0.00187522 7.1644e-22)
(3.78178e-05 -0.0014658 9.39678e-22)
(8.23697e-06 -0.000791209 -3.33799e-22)
(9.77964e-06 -5.50541e-05 -2.20474e-23)
(0.00120535 0.000277291 -5.60812e-22)
(0.000378394 0.000104423 0)
(8.37027e-05 0.000273291 5.14328e-22)
(6.48665e-05 0.000678635 0)
(1.68361e-05 0.000614483 0)
(6.22738e-06 0.000211518 0)
(0.000718666 -0.000234845 6.27186e-22)
(0.000209874 -0.000524505 -5.69271e-22)
(0.000168856 -0.00128762 -5.60027e-22)
(5.82726e-05 -0.00130846 -4.18078e-22)
(2.38481e-05 -0.000872105 -4.34759e-22)
(1.31873e-05 -0.000279331 1.31222e-23)
(0.00168586 0.000145648 0)
(0.000961172 0.000159174 1.40554e-22)
(0.000249762 5.15489e-05 0)
(3.23375e-05 0.000167273 1.98722e-27)
(2.19683e-05 0.000385205 0)
(8.67139e-06 0.000196648 -8.98034e-23)
(0.00183407 -2.67027e-05 0)
(0.00156407 -0.000258243 -5.66059e-22)
(0.000522155 -0.000131915 -1.57989e-22)
(9.94225e-05 -0.000360099 2.91849e-22)
(7.56653e-05 -0.000877398 -4.14964e-22)
(2.45363e-05 -0.000750029 -1.31464e-22)
(1.22927e-05 -0.00028062 9.15685e-23)
(0.00135337 8.23537e-05 -1.88764e-23)
(0.00071546 8.24713e-05 -2.10202e-22)
(0.000149273 2.00339e-05 0)
(6.317e-06 8.30075e-05 -1.0821e-22)
(5.51681e-06 0.000112635 9.05925e-23)
(0.0014706 -1.80403e-05 2.09892e-24)
(0.00124719 -0.00015187 6.35707e-22)
(0.000352514 -6.60333e-05 -4.72301e-27)
(3.77763e-05 -0.000221151 1.34926e-25)
(2.46152e-05 -0.000490503 -2.65275e-22)
(9.4982e-06 -0.000226834 8.36337e-23)
(0.00101771 4.2557e-05 1.4857e-22)
(0.000483139 3.63765e-05 1.02542e-22)
(7.34149e-05 3.85829e-06 -1.26143e-22)
(-1.22125e-06 1.91385e-05 2.30053e-23)
(0.0011058 -1.07242e-05 2.0944e-24)
(0.000931208 -8.1274e-05 -1.40607e-22)
(0.000215835 -2.6136e-05 4.54169e-22)
(7.22478e-06 -0.000110367 -2.12769e-22)
(6.01109e-06 -0.000139083 3.4036e-26)
(0.000696076 1.89742e-05 0)
(0.00027137 1.19822e-05 1.13807e-22)
(1.73669e-05 -1.10279e-06 7.96668e-23)
(0.000756844 -5.78812e-06 0)
(0.000631494 -3.70962e-05 -2.057e-22)
(0.00010892 -5.34236e-06 3.95909e-22)
(-1.46368e-06 -2.55797e-05 4.39588e-23)
(0.000398305 6.50633e-06 -9.70975e-25)
(8.2677e-05 2.82875e-06 -1.43009e-22)
(0.000433602 -2.79662e-06 9.69712e-25)
(0.000356519 -1.2965e-05 -1.14033e-22)
(2.6734e-05 1.18697e-06 1.12934e-22)
(0.000128965 1.65476e-06 4.33797e-23)
(0.000140674 -1.23311e-06 0)
(0.000109495 -3.58822e-06 -1.09967e-23)
(-0.142805 0.304015 2.22384e-21)
(-0.0269627 0.258916 5.09921e-22)
(-0.0419225 0.128297 0)
(-0.0753956 0.189539 2.78623e-21)
(-0.0629118 0.19421 -2.94436e-21)
(-0.073022 0.268242 0)
(-0.0373496 0.311078 0)
(-0.0980452 0.353175 -1.02569e-21)
(-0.0849302 0.314173 0)
(-0.0388409 0.266567 -1.88531e-21)
(0.152159 0.126701 4.23773e-21)
(-0.0955074 0.278837 0)
(-0.0338099 0.0636955 -3.65697e-22)
(-0.0560702 0.10525 0)
(-0.0162072 0.0192656 -3.81809e-21)
(-0.0385987 0.0469829 3.90722e-21)
(-0.0831657 0.121715 -2.27027e-21)
(-0.114796 0.159415 0)
(-0.0954014 0.203483 0)
(-0.119101 0.24024 6.18362e-22)
(-0.10878 0.295516 0)
(-0.0974964 0.289536 1.95869e-21)
(-0.0152742 0.19448 2.36968e-21)
(0.0946772 0.155501 -5.71835e-21)
(0.302808 0.0912267 1.1234e-21)
(-0.149953 0.235269 -5.90024e-22)
(-0.140543 0.252469 0)
(-0.0215698 0.0120702 -3.15874e-21)
(-0.0491874 0.0286521 8.65326e-22)
(-0.0607813 0.0521561 7.20346e-22)
(-0.0913819 0.081873 2.30837e-21)
(-0.121538 0.0806729 -4.44499e-21)
(-0.167505 0.115469 -3.93327e-21)
(-0.159415 0.156947 -3.00645e-21)
(-0.184491 0.185495 5.63124e-21)
(-0.130934 0.208746 -1.64175e-21)
(-0.0600027 0.184083 -1.71406e-21)
(0.0433091 0.128478 0)
(0.387488 0.0504156 -5.74685e-21)
(0.190368 0.106436 0)
(0.423924 0.0298135 0)
(0.243698 0.059323 4.83684e-21)
(-0.20681 0.17288 0)
(-0.178849 0.17987 0)
(-0.0108474 -0.277365 6.03709e-21)
(-0.146114 -0.33037 0)
(0.386543 -0.0835113 0)
(0.436601 0.0148334 -1.97023e-22)
(0.273596 0.0341748 0)
(0.269519 -0.0944408 0)
(0.456528 -0.0376441 1.1832e-21)
(0.458426 0.00179131 3.69632e-21)
(0.296578 0.00855243 0)
(0.320019 -0.0442476 0)
(0.473852 -0.015263 0)
(0.325094 -0.0149195 -3.75314e-21)
(-0.063956 0.0225517 1.14952e-21)
(-0.0974188 0.0360227 -1.44531e-21)
(-0.120521 0.0485927 4.75467e-21)
(-0.173508 0.0548066 0)
(-0.202303 0.0851149 0)
(-0.231692 0.0954732 -3.1048e-21)
(-0.249597 0.120085 -2.36309e-21)
(-0.152318 0.139203 0)
(0.0674791 0.0804186 3.34717e-21)
(-0.0352855 0.118035 0)
(0.151947 0.0435652 0)
(0.00479576 0.0682069 -3.61974e-21)
(-0.267032 0.10639 7.84727e-21)
(-0.228673 0.113314 -2.31886e-21)
(-0.0112101 -0.264236 -3.40716e-21)
(0.172353 -0.13773 7.67052e-21)
(0.147213 -0.156983 -6.00212e-21)
(-0.114827 -0.387007 1.70474e-21)
(-0.0771434 -0.329037 -3.71048e-21)
(-0.0361741 -0.360386 2.43751e-22)
(0.0477258 -0.183754 -6.36435e-21)
(0.0511339 -0.153933 2.08615e-21)
(0.149728 -0.110152 3.22715e-21)
(0.134002 0.0100567 0)
(0.0258879 0.0381268 0)
(0.0865125 -0.094334 -3.55657e-21)
(0.189489 -0.057268 0)
(0.101095 -0.0463002 -3.31618e-21)
(0.200536 -0.0211014 3.02412e-21)
(0.0615343 -0.00977551 4.60934e-21)
(-0.0973007 0.0161602 1.65292e-21)
(-0.141108 0.0248624 0)
(-0.16821 0.0343269 0)
(-0.213582 0.0401077 3.28341e-21)
(-0.245118 0.0588374 0)
(-0.274295 0.0598907 8.26241e-21)
(-0.294493 0.0759771 -7.06126e-21)
(-0.108258 0.0542699 0)
(-0.132026 0.0690195 -5.67658e-21)
(-0.222719 0.0874081 1.15629e-20)
(-0.195123 0.0400571 0)
(-0.292501 0.0752964 -7.47358e-21)
(-0.306171 0.06914 -3.98623e-21)
(-0.0856975 -0.315048 0)
(-0.07054 -0.248576 7.72744e-21)
(-0.0719275 -0.243754 0)
(-0.0639326 -0.323049 -5.27585e-22)
(-0.0899594 -0.326034 4.14361e-22)
(-0.102163 -0.24242 -7.93624e-21)
(-0.0603403 -0.188506 -7.29073e-21)
(-0.0903618 -0.16264 9.69495e-21)
(-0.0371779 -0.116157 2.98966e-21)
(-0.103644 -0.0834651 -3.91714e-21)
(-0.0500328 -0.0527866 0)
(-0.0772216 -0.0178738 -3.18619e-21)
(-0.172127 0.0108955 0)
(-0.123471 0.0131841 0)
(-0.167779 0.0198122 -1.28101e-21)
(-0.198094 0.0256509 -5.0198e-21)
(-0.232519 0.0320186 4.30489e-21)
(-0.261245 0.0426986 -1.53211e-21)
(-0.279706 0.0448642 -1.96661e-21)
(-0.30751 0.0567935 6.22748e-21)
(-0.277592 0.0468803 -6.94644e-21)
(-0.30105 0.0619515 8.46946e-21)
(-0.264018 0.0155253 0)
(-0.298747 0.0397585 -1.19023e-21)
(-0.321166 0.0618821 0)
(-0.314359 0.0565653 0)
(-0.0467887 -0.174295 -1.23693e-20)
(-0.0894348 -0.248996 4.26681e-21)
(-0.109881 -0.258993 5.15499e-21)
(-0.121752 -0.288643 -7.1046e-22)
(-0.137727 -0.259307 6.55441e-22)
(-0.172233 -0.210029 -7.46635e-21)
(-0.174969 -0.170585 0)
(-0.195618 -0.112958 -9.32942e-21)
(-0.281275 0.0178937 -4.39168e-21)
(-0.237522 -0.0819599 6.78736e-21)
(-0.273983 -0.0184057 2.80128e-21)
(-0.135494 0.0115883 4.51752e-21)
(-0.294667 0.053048 2.69733e-21)
(-0.173484 0.0179237 -3.22747e-21)
(-0.198935 0.0232816 -2.79434e-21)
(-0.226294 0.031288 -6.05196e-21)
(-0.261505 0.0397389 1.35422e-21)
(-0.270896 0.0439431 -3.43183e-21)
(-0.294276 0.0460221 -2.6992e-21)
(-0.318236 0.0607703 6.72779e-22)
(-0.313225 0.0515528 1.23265e-21)
(-0.274837 0.0591628 4.81691e-21)
(-0.29115 0.0568432 1.99652e-21)
(-0.301955 0.0645231 -1.27921e-21)
(-0.294117 0.061147 -1.91856e-21)
(-0.242411 0.064592 -6.67711e-21)
(-0.0389572 -0.105084 0)
(-0.0625012 -0.165989 8.27744e-21)
(-0.183071 0.0661251 0)
(-0.22145 0.0555638 4.37741e-21)
(-0.120776 0.0615389 8.4773e-21)
(-0.146575 0.058171 -5.59777e-21)
(-0.0860443 -0.181447 0)
(-0.125148 -0.221312 -4.90037e-21)
(-0.162279 -0.19866 1.5002e-20)
(-0.219427 0.0286134 -5.83721e-21)
(-0.245522 0.00874469 4.6204e-21)
(-0.179571 -0.157309 -1.06991e-20)
(-0.23049 -0.0769401 1.13788e-22)
(-0.222384 -0.0475244 -9.42586e-21)
(-0.135738 0.0117711 0)
(-0.266243 0.0527991 0)
(-0.24517 0.0395967 2.5967e-22)
(-0.250754 0.0463442 -3.54415e-22)
(-0.169207 0.0200994 -5.02248e-21)
(-0.197276 0.0263322 5.34141e-21)
(-0.215699 0.0314418 4.63401e-21)
(-0.284838 0.0701703 1.83082e-21)
(-0.276872 0.0697507 -4.16907e-22)
(-0.247388 0.0774315 3.63316e-21)
(-0.228231 0.0764814 1.32583e-21)
(-0.259226 0.0572875 -5.47572e-21)
(-0.264834 0.0719005 1.999e-23)
(-0.271599 0.0638691 4.67546e-21)
(-0.201414 0.0821156 2.29948e-21)
(-0.176504 0.0804295 -7.50234e-21)
(-0.119856 0.0731971 2.8829e-21)
(-0.145062 0.0806248 2.3815e-21)
(-0.095708 0.0709176 -3.36804e-21)
(-0.0575646 0.0524451 0)
(-0.0759396 0.0589807 2.79832e-21)
(-0.0918695 0.0547533 -2.40034e-22)
(-0.0834263 0.0470389 0)
(-0.0249322 -0.0547212 -4.19627e-21)
(-0.0490758 -0.095015 4.10557e-21)
(-0.0595062 -0.10259 2.88711e-21)
(-0.0951227 -0.138297 0)
(-0.107706 0.0317537 1.0204e-20)
(-0.141139 0.0342293 0)
(-0.168898 0.0188889 5.66236e-21)
(-0.121307 -0.116501 1.30633e-22)
(-0.152642 -0.0268251 1.53358e-21)
(-0.151435 -0.124329 -4.2194e-21)
(-0.179979 -0.0561363 8.46574e-21)
(-0.013953 -0.0251669 -4.96204e-22)
(-0.0255732 -0.0430858 0)
(-0.126002 0.0107816 0)
(-0.0850566 0.00384005 -5.14551e-22)
(-0.102855 0.00502783 5.18697e-22)
(-0.223805 0.0441772 -3.00818e-21)
(-0.234483 0.0542635 2.64529e-21)
(-0.150075 0.0166041 0)
(-0.184906 0.0256339 -2.45617e-21)
(-0.201143 0.0351553 2.95873e-21)
(-0.199206 0.0864338 1.24116e-21)
(-0.239282 0.0767406 -2.0177e-21)
(-0.232764 0.0817413 -2.56042e-21)
(-0.218731 0.0602205 -3.409e-21)
(-0.219072 0.0716454 6.75998e-22)
(-0.176342 0.0843036 0)
(-0.148086 0.0843884 0)
(-0.134585 0.0828141 0)
(-0.107079 0.079383 -2.97557e-21)
(-0.0874873 0.0727886 -1.67582e-21)
(-0.067438 0.0661607 3.98957e-21)
(-0.0505247 0.0542437 0)
(-0.00780835 0.0145312 0)
(-0.00500037 0.00961324 -6.67878e-22)
(-0.0142647 0.025984 3.59746e-21)
(-0.022861 0.0350535 -3.1536e-21)
(-0.0363444 0.0471469 0)
(-0.0258681 0.0329088 -5.85684e-21)
(-0.0393741 0.0403148 3.75495e-23)
(-0.0107526 0.0154358 0)
(-0.0146978 0.020179 -4.59986e-21)
(-0.00493247 0.00587266 0)
(-0.0416695 0.0354741 1.35512e-23)
(-0.0597465 0.0401235 2.05764e-23)
(-0.0589264 0.0304366 3.55591e-21)
(-0.0924789 0.025953 -4.32545e-21)
(-0.0363807 -0.0479462 8.81291e-21)
(-0.0604573 -0.0669821 -1.85481e-20)
(-0.0882036 -0.0672165 3.9511e-21)
(-0.0877735 0.00901556 -2.28004e-21)
(-0.0965987 -0.0379668 8.37686e-21)
(-0.117175 -0.0226113 -5.88531e-21)
(-0.00689991 -0.00708583 0)
(-0.0130815 -0.0154603 0)
(-0.016197 -0.016765 -3.64655e-21)
(-0.0323225 -0.0283294 -5.33373e-21)
(-0.00421472 0.00680751 5.65155e-22)
(-0.117802 0.0104124 1.25357e-21)
(-0.0697788 0.000824262 0)
(-0.0874985 0.00282384 -1.09678e-21)
(-0.146698 0.029296 1.49046e-21)
(-0.173553 0.0375341 -4.45781e-21)
(-0.189329 0.0550477 -8.10655e-23)
(-0.162313 0.0678488 4.04891e-21)
(-0.181564 0.076125 -4.75263e-21)
(-0.169061 0.0815062 3.23332e-21)
(-0.0990749 0.0791448 -3.93071e-21)
(-0.128481 0.0781567 6.07468e-23)
(-0.125916 0.0828398 1.11158e-21)
(-0.0371317 0.0531452 4.04607e-21)
(-0.0566213 0.0645344 -4.42157e-23)
(-0.07862 0.0718122 1.95872e-21)
(-0.0111593 0.0273604 1.76765e-21)
(-0.0273564 0.0448934 -2.14114e-21)
(-0.0063103 0.0177603 -1.5888e-21)
(-0.0165697 0.0185399 5.23523e-21)
(-0.0262071 0.0239907 0)
(-0.00504076 0.0049852 4.11264e-21)
(-0.00739804 0.00750763 -7.26837e-21)
(-0.00222759 0.000334543 0)
(-0.00222392 0.000331425 0)
(-0.00450572 -0.00215489 -1.1554e-21)
(-0.0267818 0.0194258 5.2423e-21)
(-0.0413377 0.0217619 -1.5819e-23)
(-0.0412677 0.0142467 -1.0782e-20)
(-0.0632499 0.00757499 1.0884e-20)
(-0.038958 -0.0179353 3.80771e-21)
(-0.054327 -0.0178041 -3.09013e-21)
(-0.0479347 -0.00261614 -3.8081e-21)
(-0.00654763 -0.00306612 7.17178e-22)
(-0.0130971 -0.00712737 2.03319e-21)
(-0.0214447 -0.00661959 1.40881e-21)
(-0.00507085 0.0134526 -3.05321e-21)
(-0.0292682 0.0495626 0)
(-0.0616463 0.0639641 0)
(-0.0931558 0.0360265 3.94697e-21)
(-0.108839 0.0553766 -2.76841e-21)
(-0.101074 0.0672061 0)
(-0.0222628 0.00259978 3.06212e-23)
(-0.0626334 0.0148129 0)
(-0.0100258 0.0309584 -1.03652e-22)
(-0.000829174 0.00176148 -6.08664e-22)
(-0.000217461 0.00204869 2.99376e-21)
(-0.00929484 0.00687215 7.49977e-21)
(-0.0147091 0.0105712 0)
(-0.00154212 -0.000792448 -3.39872e-21)
(-0.0034454 0.000626237 -1.07878e-20)
(-0.0004893 -0.00230152 5.95606e-21)
(-0.00139585 0.00147388 4.21849e-22)
(-0.00537983 -0.000676528 0)
(-0.0158993 0.00597523 0)
(-0.025774 0.00784371 0)
(-0.0282711 0.000492462 0)
(-0.0074532 -0.000584927 4.81293e-21)
(-0.0162934 -0.0029192 -4.11252e-21)
(-0.0185745 0.000574298 0)
(-0.00132112 0.00993882 0)
(-0.000409798 0.00166594 2.7225e-21)
(0.000580124 0.00166822 -6.82893e-21)
(0.000651809 0.00195445 1.18869e-20)
(0.000635447 0.00178176 -7.18397e-21)
(0.000874843 0.00122646 -2.33877e-21)
(0.000468751 0.000635574 0)
(-0.00314214 -8.87774e-05 3.51874e-21)
(-0.00669369 0.00129195 0)
(0.00015657 -0.00293443 0)
(-0.000223334 -0.00243927 0)
(0.000225406 -0.00302231 -1.29477e-21)
(-0.00077797 0.00109895 2.23582e-21)
(-0.00308794 0.000834591 0)
(-0.00238789 0.000434767 6.76851e-21)
(-0.0046325 0.000682454 1.79024e-21)
(-0.0059855 0.00148011 -6.75079e-21)
(0.00116026 0.0014632 0)
(0.000773457 0.0013018 5.27914e-21)
(0.00124116 0.00107027 8.56215e-21)
(0.00149 0.00125003 -9.71163e-21)
(0.000673598 0.000345549 -1.74315e-22)
(0.00121933 0.000655669 7.23279e-21)
(0.000782116 -0.00231914 1.45299e-21)
(0.000204457 -0.00132571 -1.08956e-21)
(0.000750285 -0.00229639 -8.36623e-21)
(0.000954129 -0.00268589 1.14318e-20)
(0.00119865 -0.00254137 0)
(0.00133505 0.000953174 -5.358e-21)
(0.000533718 0.000832172 -7.84286e-21)
(0.0017201 -5.56552e-06 1.1628e-20)
(0.00158767 -0.00102082 0)
(0.00107269 -0.00147843 0)
(0.000583618 -0.00082003 4.46027e-21)
(0.00197088 0.000841735 3.35733e-21)
(0.00209791 0.000794811 -5.95496e-21)
(0.00144439 0.000458136 -1.30425e-22)
(0.00190968 0.000597422 1.78972e-24)
(0.00158014 -0.00134366 0)
(0.00194985 -0.00163232 1.9505e-21)
(0.00220271 -0.00110383 -1.68503e-21)
(0.00255732 0.000271577 -4.16487e-24)
(0.00246065 -0.000551012 7.99863e-22)
(0.00247606 -0.000120455 6.32241e-21)
(0.000882549 -0.000391604 -5.91228e-21)
(0.0016052 -0.000761174 0)
(0.00201954 0.000251001 -8.83113e-21)
(0.0024502 0.000199217 4.21039e-21)
(0.00220566 -3.67515e-05 4.4837e-21)
(0.00189743 -0.000437557 0)
(0.00231366 -0.000458494 -4.91229e-21)
)
;

boundaryField
{
    movingWall
    {
        type            fixedValue;
        value           uniform (1 0 0);
    }
    fixedWalls
    {
        type            noSlip;
    }
    frontAndBack
    {
        type            empty;
    }
    defaultFaces
    {
        type            empty;
    }
}


// ************************************************************************* //
