/*--------------------------------*- C++ -*----------------------------------*\
  =========                 |
  \\      /  F ield         | OpenFOAM: The Open Source CFD Toolbox
   \\    /   O peration     | Website:  https://openfoam.org
    \\  /    A nd           | Version:  8
     \\/     M anipulation  |
\*---------------------------------------------------------------------------*/
FoamFile
{
    version     2.0;
    format      ascii;
    class       volVectorField;
    location    "0.084";
    object      U;
}
// * * * * * * * * * * * * * * * * * * * * * * * * * * * * * * * * * * * * * //

dimensions      [0 1 -1 0 0 0 0];

internalField   nonuniform List<vector> 
656
(
(0.743372 0.0565316 -9.65471e-25)
(0.927889 0.0140691 1.86666e-24)
(0.954788 -0.00127375 0)
(-0.0910749 0.118994 2.40002e-23)
(0.556742 0.0977245 1.12098e-23)
(0.841242 0.000939744 0)
(-0.0571798 0.0672276 -4.93901e-23)
(-0.0145962 0.018846 9.85105e-24)
(0.968227 -0.000150839 0)
(-0.00050463 0.138601 -2.37829e-24)
(-0.00304957 0.193131 -7.83496e-23)
(-0.117738 0.172053 0)
(0.376006 0.139834 1.00526e-23)
(0.715019 0.00930685 0)
(0.890989 0.00127448 -1.70667e-22)
(0.906566 0.000583096 4.77898e-23)
(0.00104044 0.0823432 9.70496e-24)
(0.00137428 0.0267217 0)
(0.971852 -7.63391e-05 -3.43357e-23)
(0.913661 0.000298548 -1.43718e-22)
(-0.0123884 0.0928733 7.71105e-23)
(-0.00523407 0.0628721 0)
(-0.0239222 0.125115 1.33361e-24)
(-0.00789612 0.242543 1.53982e-22)
(-0.136115 0.223437 -1.67657e-22)
(0.210343 0.18042 -2.26587e-23)
(0.577674 0.0245875 0)
(0.8007 0.00637691 2.66449e-22)
(0.829494 0.00303219 -8.91623e-23)
(-0.00144234 0.0356645 0)
(-0.000151562 0.0114448 0)
(0.916986 0.000158354 5.13466e-23)
(0.973373 -4.69475e-05 -3.66607e-23)
(0.842959 0.00161739 1.95816e-22)
(0.849424 0.00081045 -5.18089e-23)
(0.85403 6.34763e-05 -1.08889e-22)
(-0.00677975 0.0608905 -1.05381e-22)
(-0.00280708 0.0409242 1.7071e-23)
(-0.0137926 0.0825098 -1.88325e-22)
(-0.0408483 0.158564 -1.577e-22)
(-0.01671 0.28282 1.66501e-22)
(-0.143742 0.269547 -4.77711e-24)
(0.0686489 0.217917 4.55154e-22)
(0.433182 0.0474137 0)
(0.696558 0.0162323 0)
(0.739381 0.00802643 -3.6982e-22)
(-0.00082163 0.0230279 -5.40253e-24)
(-0.000128818 0.00732299 0)
(0.854942 -0.000883155 1.20144e-22)
(0.919452 2.84502e-05 -2.78104e-23)
(0.974008 -2.02069e-05 4.92918e-24)
(0.759769 0.00435522 0)
(0.769764 0.00218541 0)
(0.776841 0.000151971 -1.06666e-22)
(0.778386 -0.00237206 4.59706e-22)
(0.763625 -0.00604317 0)
(-0.0103745 0.0366042 2.00131e-22)
(-0.00502145 0.0257397 2.95145e-22)
(-0.0020282 0.0165172 -2.87514e-22)
(-0.0250269 0.104803 -1.85263e-22)
(-0.0193443 0.0489368 5.84787e-22)
(0.28681 0.079672 -1.32799e-22)
(0.57847 0.0319868 1.75137e-22)
(0.6352 0.0165801 -5.20767e-22)
(-0.000553537 0.00884745 4.53702e-23)
(-6.70893e-05 0.0025618 6.0905e-23)
(0.84486 -0.00224244 -2.5466e-22)
(0.919999 -0.00014638 8.54502e-23)
(0.974687 1.29032e-05 5.47828e-24)
(0.726767 -0.0151979 -1.16791e-23)
(0.662691 0.00911908 0)
(0.676455 0.00466439 1.93316e-22)
(0.686384 0.000386317 2.04132e-22)
(0.688968 -0.00481307 -8.82331e-22)
(0.669709 -0.012543 2.27279e-22)
(-0.00839883 0.0139349 8.88422e-22)
(-0.00405365 0.00913814 -6.83448e-24)
(-0.00182771 0.00550516 0)
(-0.000643613 0.00295305 1.05771e-22)
(0.447786 0.055828 0)
(0.516951 0.030368 6.66113e-22)
(-8.94482e-05 0.00127333 -1.00135e-22)
(5.53251e-05 0.000241393 -3.08628e-23)
(0.604785 -0.0240905 4.71813e-22)
(0.820259 -0.00592583 1.49694e-22)
(0.914484 -0.000374937 0)
(0.97503 4.19897e-05 -5.28356e-23)
(0.619972 -0.0302309 -2.88772e-22)
(0.468208 -0.0472381 7.26193e-22)
(0.251479 -0.190757 -8.79081e-22)
(0.550824 0.0170801 0)
(0.568149 0.00874848 4.66271e-23)
(0.581237 0.00099237 -1.45194e-22)
(0.585538 -0.00871518 5.11886e-22)
(0.562577 -0.0231806 -8.69612e-22)
(-0.0147912 0.00626421 3.73776e-22)
(-0.00924718 0.00306671 -3.98854e-22)
(-0.00537227 0.00139792 -1.97735e-22)
(-0.00279648 0.000480317 3.91349e-22)
(-0.00116584 4.38419e-05 4.713e-23)
(-0.000203191 -6.20621e-05 -2.84976e-23)
(-0.136729 -0.250241 5.90066e-23)
(0.411944 -0.147966 -6.13836e-23)
(0.732778 -0.00901638 -7.95846e-22)
(0.901186 -0.00112448 0)
(0.973746 0.000109574 0)
(0.49972 -0.0539483 5.52146e-22)
(0.325511 -0.0810142 -2.7733e-22)
(0.106282 -0.230035 1.02582e-22)
(-0.141409 -0.298198 1.38428e-21)
(-0.0465805 0.0112551 0)
(-0.034021 0.00583954 1.86863e-22)
(-0.0235915 0.00285793 -6.59977e-22)
(-0.0149878 0.00114532 1.84041e-22)
(-0.00792713 0.000287614 -4.38527e-23)
(-0.00212803 2.17922e-05 -2.72268e-23)
(-0.00754399 -0.289029 0)
(-0.120665 -0.194926 0)
(0.582914 -0.103403 4.88166e-22)
(0.850386 -0.00087869 -3.99584e-23)
(0.970606 0.000203289 -1.0304e-22)
(-0.0155572 -0.332919 -1.64648e-21)
(-0.0760016 0.0100105 0)
(-0.0568624 0.00552752 1.93151e-22)
(-0.0403703 0.00276358 -1.41146e-24)
(-0.0262672 0.00117178 9.54887e-23)
(-0.0142712 0.00036038 -4.48734e-23)
(-0.00411641 7.18028e-05 0)
(-0.027622 -0.164274 -5.51166e-22)
(-0.00296279 -0.233228 0)
(-0.094997 -0.136206 5.08316e-22)
(0.75789 -0.0597746 0)
(0.956554 0.00135216 7.64117e-23)
(-0.0466781 -0.205094 0)
(-0.0980844 0.00828969 0)
(-0.0741665 0.00460894 1.20078e-22)
(-0.0531752 0.00234377 -3.48152e-22)
(-0.0349417 0.0010281 1.12646e-22)
(-0.0192397 0.000345411 5.03484e-23)
(-0.00578431 8.89848e-05 -1.68739e-23)
(-0.015655 -0.119025 2.82625e-22)
(-0.0145372 -0.123351 0)
(-0.000248197 -0.169217 -4.45518e-22)
(-0.0605237 -0.0776122 4.30418e-22)
(0.931395 -0.0147218 0)
(-0.0284336 -0.148592 0)
(-0.107004 0.00724197 1.53155e-22)
(-0.0810004 0.0040876 -1.47862e-22)
(-0.0581643 0.00207792 1.43073e-22)
(-0.038291 0.000905978 -2.73888e-22)
(-0.021155 0.000304641 3.76655e-22)
(-0.00650421 7.86169e-05 -5.02186e-23)
(-0.0133572 -0.0678591 2.43769e-22)
(-0.00771821 -0.0890974 -5.22016e-22)
(-0.00596347 -0.0840659 1.52074e-22)
(0.00181255 -0.100771 -4.6198e-22)
(-0.014189 -0.0214027 1.30993e-23)
(-0.0241148 -0.0868513 0)
(-0.0154613 -0.0452149 -5.49846e-23)
(-0.107963 0.00780869 -1.88583e-22)
(-0.0816238 0.00492879 7.60121e-22)
(-0.0586936 0.00264434 -7.25765e-22)
(-0.0387752 0.0011399 0)
(-0.0215134 0.000351537 0)
(-0.00671224 7.27358e-05 -5.50901e-24)
(-0.00849425 -0.0350813 1.17253e-22)
(-0.00666781 -0.0497925 3.44442e-24)
(-0.00302973 -0.0605428 3.97954e-22)
(-0.00125804 -0.0475665 -1.49542e-22)
(0.00233743 -0.0310267 0)
(-0.00873829 -0.0196302 8.91156e-22)
(-0.0632758 0.00409139 8.29102e-22)
(-0.041441 0.00257065 -8.57307e-22)
(-0.0227753 0.000908309 0)
(-0.00700815 0.000157902 -7.76627e-24)
(-0.00480648 -0.0146288 -2.36315e-22)
(-0.00418795 -0.0254846 -9.16753e-23)
(-0.00273023 -0.0332927 1.89004e-22)
(-0.000643015 -0.0342508 -1.29325e-22)
(0.00018238 -0.014365 4.94292e-23)
(-0.00447429 -0.00526426 0)
(-0.0027059 0.00320066 -1.02406e-21)
(-0.0505268 0.00118001 0)
(-0.0176843 0.000393808 -2.71408e-23)
(-0.00152195 0.00080405 0)
(-0.00238141 -0.00358802 -2.4056e-22)
(-0.0023451 -0.0102336 -4.59276e-22)
(-0.00172133 -0.0168628 -6.24875e-23)
(-0.00072438 -0.0186272 1.27155e-22)
(7.65233e-05 -0.0106533 -4.96195e-23)
(-0.00108014 -0.000901971 2.08811e-21)
(-0.0013062 0.00154777 2.17906e-21)
(-0.00310774 0.00369359 7.0207e-23)
(-0.000132291 0.00198919 -4.81421e-22)
(-0.000749103 0.00104818 -9.82451e-25)
(-0.00111835 -0.00225126 1.24587e-22)
(-0.000958344 -0.00653664 3.71986e-22)
(-0.000483999 -0.00935139 7.62148e-24)
(-6.56822e-05 -0.00583924 -2.27909e-23)
(-0.000147355 -0.00257532 -1.88356e-24)
(-0.000453262 -0.00141138 -1.74693e-21)
(-0.000547656 0.000678781 -5.26919e-22)
(-0.00136136 0.00157866 0)
(-0.00319367 0.00914371 1.51722e-21)
(0.000389169 0.00150983 -2.58748e-22)
(-4.0076e-06 0.00176478 2.56504e-22)
(-0.000314473 0.00105877 1.28437e-22)
(-0.000440199 -0.00126603 0)
(-0.000272119 -0.003506 -1.2192e-22)
(-6.47739e-05 -0.00293399 1.71268e-23)
(0.000229815 -0.00282389 8.27433e-22)
(1.30111e-05 -0.00241825 3.33751e-22)
(-0.000162164 -0.00146219 1.96694e-22)
(-0.000173901 0.000193217 5.36032e-23)
(-0.000334931 0.000545771 -6.14603e-23)
(-0.000459805 0.00212019 1.0924e-21)
(0.000310206 0.000534705 1.08136e-21)
(0.000248363 0.00126919 -4.0476e-22)
(2.98061e-05 0.00143256 -2.63975e-22)
(-0.000107171 0.000883771 -1.28486e-22)
(-0.000115838 -0.000584137 0)
(-3.96752e-05 -0.00106221 -1.12742e-23)
(0.000527961 -0.00205846 0)
(0.00018502 -0.00240429 -2.86303e-22)
(4.71954e-05 -0.00200873 -9.86501e-22)
(-3.76954e-05 -0.00121448 3.21489e-22)
(-2.21826e-05 -2.84305e-05 -3.58209e-22)
(-1.24984e-05 1.19358e-05 9.65591e-24)
(0.000531998 0.000192031 -4.69797e-22)
(0.000171495 0.000398878 7.16204e-22)
(0.000139501 0.000980579 -6.92981e-22)
(2.76344e-05 0.00103593 1.32346e-22)
(-1.72671e-05 0.000583899 0)
(-1.10007e-05 -0.000141967 1.11475e-23)
(0.000388872 -0.000698717 0)
(0.000316771 -0.00169606 5.50365e-22)
(0.00011503 -0.00187514 7.16439e-22)
(3.78186e-05 -0.00146576 9.39678e-22)
(8.23759e-06 -0.0007912 -3.33799e-22)
(9.77966e-06 -5.50591e-05 -2.20474e-23)
(0.00120527 0.000277273 -5.60812e-22)
(0.000378371 0.000104417 0)
(8.36981e-05 0.000273275 5.14328e-22)
(6.48633e-05 0.000678596 0)
(1.68356e-05 0.000614451 0)
(6.2272e-06 0.000211509 0)
(0.000718628 -0.000234831 6.27186e-22)
(0.000209864 -0.000524478 -5.69271e-22)
(0.00016885 -0.00128756 -5.60027e-22)
(5.82718e-05 -0.00130841 -4.18077e-22)
(2.38481e-05 -0.00087208 -4.34758e-22)
(1.31871e-05 -0.000279328 1.31222e-23)
(0.00168575 0.000145639 0)
(0.00096111 0.000159164 1.40554e-22)
(0.000249747 5.15456e-05 0)
(3.23358e-05 0.000167264 1.98723e-27)
(2.19673e-05 0.000385183 0)
(8.67111e-06 0.000196638 -8.98034e-23)
(0.00183396 -2.66987e-05 0)
(0.00156398 -0.000258225 -5.66058e-22)
(0.000522129 -0.000131908 -1.57989e-22)
(9.94179e-05 -0.000360082 2.91849e-22)
(7.56624e-05 -0.000877355 -4.14964e-22)
(2.45358e-05 -0.000749998 -1.31463e-22)
(1.22924e-05 -0.000280612 9.15685e-23)
(0.00135328 8.23489e-05 -1.88764e-23)
(0.000715414 8.24661e-05 -2.10202e-22)
(0.000149265 2.00327e-05 0)
(6.31669e-06 8.30033e-05 -1.0821e-22)
(5.51658e-06 0.000112628 9.05925e-23)
(0.00147051 -1.80379e-05 2.09891e-24)
(0.00124711 -0.00015186 6.35707e-22)
(0.000352496 -6.60296e-05 -4.72294e-27)
(3.77746e-05 -0.00022114 1.34921e-25)
(2.46143e-05 -0.000490479 -2.65275e-22)
(9.49791e-06 -0.000226825 8.36337e-23)
(0.00101764 4.25546e-05 1.4857e-22)
(0.000483109 3.63743e-05 1.02542e-22)
(7.34111e-05 3.85809e-06 -1.26143e-22)
(-1.22114e-06 1.91376e-05 2.30053e-23)
(0.00110573 -1.07229e-05 2.0944e-24)
(0.000931155 -8.12688e-05 -1.40607e-22)
(0.000215825 -2.61346e-05 4.54168e-22)
(7.22449e-06 -0.000110362 -2.12769e-22)
(6.01088e-06 -0.000139076 3.4035e-26)
(0.000696032 1.89732e-05 0)
(0.000271353 1.19815e-05 1.13807e-22)
(1.7366e-05 -1.1027e-06 7.96668e-23)
(0.000756798 -5.78752e-06 0)
(0.000631459 -3.70939e-05 -2.057e-22)
(0.000108915 -5.34211e-06 3.95909e-22)
(-1.46358e-06 -2.55785e-05 4.39588e-23)
(0.00039828 6.50598e-06 -9.70975e-25)
(8.2672e-05 2.82862e-06 -1.43009e-22)
(0.000433576 -2.79641e-06 9.69712e-25)
(0.0003565 -1.29643e-05 -1.14033e-22)
(2.67329e-05 1.18688e-06 1.12934e-22)
(0.000128957 1.65468e-06 4.33797e-23)
(0.000140666 -1.23305e-06 0)
(0.000109489 -3.58806e-06 -1.09967e-23)
(-0.142805 0.304015 2.22384e-21)
(-0.0269627 0.258916 5.09922e-22)
(-0.0419225 0.128297 0)
(-0.0753956 0.189539 2.78623e-21)
(-0.0629118 0.19421 -2.94436e-21)
(-0.073022 0.268242 0)
(-0.0373496 0.311078 0)
(-0.0980452 0.353175 -1.02569e-21)
(-0.0849302 0.314173 0)
(-0.0388409 0.266567 -1.88531e-21)
(0.152159 0.126701 4.23772e-21)
(-0.0955074 0.278837 0)
(-0.03381 0.0636955 -3.65697e-22)
(-0.0560702 0.10525 0)
(-0.0162072 0.0192656 -3.81809e-21)
(-0.0385987 0.0469829 3.90722e-21)
(-0.0831657 0.121715 -2.27027e-21)
(-0.114796 0.159415 0)
(-0.0954014 0.203483 0)
(-0.119101 0.24024 6.18362e-22)
(-0.10878 0.295516 0)
(-0.0974964 0.289536 1.95869e-21)
(-0.0152742 0.19448 2.36968e-21)
(0.0946773 0.155501 -5.71835e-21)
(0.302808 0.0912266 1.1234e-21)
(-0.149953 0.235269 -5.90024e-22)
(-0.140543 0.252469 0)
(-0.0215698 0.0120702 -3.15874e-21)
(-0.0491874 0.0286521 8.65327e-22)
(-0.0607814 0.0521561 7.20346e-22)
(-0.0913819 0.081873 2.30837e-21)
(-0.121538 0.0806729 -4.44499e-21)
(-0.167505 0.115469 -3.93327e-21)
(-0.159415 0.156947 -3.00645e-21)
(-0.184491 0.185495 5.63125e-21)
(-0.130934 0.208746 -1.64175e-21)
(-0.0600028 0.184082 -1.71406e-21)
(0.0433089 0.128478 0)
(0.387487 0.0504155 -5.74685e-21)
(0.190367 0.106436 0)
(0.423924 0.0298133 0)
(0.243698 0.0593227 4.83684e-21)
(-0.20681 0.17288 0)
(-0.178849 0.17987 0)
(-0.0108477 -0.277365 6.03709e-21)
(-0.146114 -0.33037 0)
(0.386541 -0.0835111 0)
(0.4366 0.0148332 -1.97023e-22)
(0.273595 0.0341744 0)
(0.269518 -0.0944404 0)
(0.456527 -0.037644 1.1832e-21)
(0.458425 0.00179115 3.69632e-21)
(0.296576 0.00855213 0)
(0.320017 -0.0442475 0)
(0.473851 -0.015263 0)
(0.325092 -0.0149196 -3.75314e-21)
(-0.0639561 0.0225517 1.14952e-21)
(-0.0974189 0.0360227 -1.44531e-21)
(-0.120521 0.0485926 4.75467e-21)
(-0.173508 0.0548065 0)
(-0.202303 0.0851147 0)
(-0.231691 0.0954728 -3.1048e-21)
(-0.249597 0.120085 -2.36309e-21)
(-0.152318 0.139203 0)
(0.0674786 0.0804181 3.34717e-21)
(-0.0352858 0.118034 0)
(0.151946 0.0435647 0)
(0.00479504 0.0682062 -3.61974e-21)
(-0.267032 0.106389 7.84727e-21)
(-0.228673 0.113313 -2.31886e-21)
(-0.0112107 -0.264236 -3.40716e-21)
(0.172352 -0.13773 7.67052e-21)
(0.147212 -0.156982 -6.00212e-21)
(-0.114827 -0.387006 1.70474e-21)
(-0.0771441 -0.329036 -3.71049e-21)
(-0.0361744 -0.360386 2.43751e-22)
(0.0477247 -0.183753 -6.36435e-21)
(0.0511325 -0.153933 2.08615e-21)
(0.149727 -0.110151 3.22715e-21)
(0.134 0.0100562 0)
(0.0258865 0.0381261 0)
(0.0865106 -0.0943336 -3.55657e-21)
(0.189487 -0.0572679 0)
(0.101093 -0.0463001 -3.31618e-21)
(0.200534 -0.0211016 3.02412e-21)
(0.0615323 -0.00977593 4.60934e-21)
(-0.0973007 0.0161602 1.65292e-21)
(-0.141108 0.0248623 0)
(-0.16821 0.0343267 0)
(-0.213581 0.0401074 3.28341e-21)
(-0.245118 0.058837 0)
(-0.274294 0.0598901 8.26241e-21)
(-0.294492 0.0759763 -7.06126e-21)
(-0.108259 0.054269 0)
(-0.132027 0.0690186 -5.67658e-21)
(-0.222719 0.087407 1.15629e-20)
(-0.195123 0.040056 0)
(-0.292501 0.0752952 -7.47358e-21)
(-0.306171 0.069139 -3.98623e-21)
(-0.0856984 -0.315047 0)
(-0.0705412 -0.248575 7.72744e-21)
(-0.0719277 -0.243753 0)
(-0.063933 -0.323048 -5.27585e-22)
(-0.08996 -0.326033 4.14361e-22)
(-0.102164 -0.242419 -7.93624e-21)
(-0.0603418 -0.188505 -7.29073e-21)
(-0.0903634 -0.162639 9.69495e-21)
(-0.0371798 -0.116157 2.98966e-21)
(-0.103646 -0.0834648 -3.91714e-21)
(-0.0500349 -0.0527866 0)
(-0.0772234 -0.0178744 -3.18619e-21)
(-0.172128 0.0108946 0)
(-0.123471 0.013184 0)
(-0.167779 0.019812 -1.28101e-21)
(-0.198093 0.0256507 -5.0198e-21)
(-0.232518 0.0320183 4.30489e-21)
(-0.261244 0.042698 -1.53211e-21)
(-0.279705 0.0448634 -1.96661e-21)
(-0.30751 0.0567925 6.22748e-21)
(-0.277592 0.046879 -6.94644e-21)
(-0.30105 0.0619501 8.46947e-21)
(-0.264019 0.0155244 0)
(-0.298746 0.0397572 -1.19023e-21)
(-0.321165 0.0618807 0)
(-0.314358 0.0565641 0)
(-0.0467887 -0.174293 -1.23694e-20)
(-0.0894351 -0.248995 4.26681e-21)
(-0.109881 -0.258992 5.15499e-21)
(-0.121753 -0.288642 -7.1046e-22)
(-0.137728 -0.259306 6.55441e-22)
(-0.172234 -0.210027 -7.46635e-21)
(-0.17497 -0.170584 0)
(-0.195619 -0.112957 -9.32942e-21)
(-0.281274 0.0178927 -4.39168e-21)
(-0.237522 -0.0819597 6.78736e-21)
(-0.273983 -0.0184062 2.80128e-21)
(-0.135494 0.0115882 4.51753e-21)
(-0.294665 0.0530469 2.69733e-21)
(-0.173483 0.0179235 -3.22748e-21)
(-0.198934 0.0232814 -2.79434e-21)
(-0.226293 0.0312876 -6.05196e-21)
(-0.261504 0.0397382 1.35422e-21)
(-0.270895 0.0439423 -3.43183e-21)
(-0.294274 0.0460207 -2.6992e-21)
(-0.318235 0.0607688 6.72779e-22)
(-0.313223 0.0515513 1.23265e-21)
(-0.274835 0.0591613 4.81691e-21)
(-0.291149 0.0568421 1.99653e-21)
(-0.301953 0.0645217 -1.27921e-21)
(-0.294116 0.0611457 -1.91856e-21)
(-0.242409 0.0645905 -6.67712e-21)
(-0.038957 -0.105083 0)
(-0.0625012 -0.165987 8.27744e-21)
(-0.183069 0.0661237 0)
(-0.221448 0.0555625 4.37741e-21)
(-0.120774 0.0615376 8.4773e-21)
(-0.146573 0.0581698 -5.59777e-21)
(-0.0860442 -0.181445 0)
(-0.125148 -0.22131 -4.90037e-21)
(-0.16228 -0.198658 1.5002e-20)
(-0.219425 0.0286125 -5.83721e-21)
(-0.24552 0.008744 4.6204e-21)
(-0.179571 -0.157307 -1.06991e-20)
(-0.230489 -0.0769395 1.13788e-22)
(-0.222383 -0.0475241 -9.42586e-21)
(-0.135737 0.011771 0)
(-0.266242 0.0527981 0)
(-0.245169 0.039596 2.59671e-22)
(-0.250753 0.0463434 -3.54415e-22)
(-0.169206 0.0200991 -5.02248e-21)
(-0.197275 0.0263319 5.34142e-21)
(-0.215698 0.0314414 4.63401e-21)
(-0.284836 0.0701688 1.83082e-21)
(-0.27687 0.0697492 -4.16907e-22)
(-0.247386 0.07743 3.63316e-21)
(-0.228229 0.0764799 1.32583e-21)
(-0.259225 0.0572864 -5.47572e-21)
(-0.264832 0.0718992 1.99901e-23)
(-0.271598 0.0638679 4.67546e-21)
(-0.201412 0.0821141 2.29948e-21)
(-0.176502 0.080428 -7.50234e-21)
(-0.119854 0.0731957 2.8829e-21)
(-0.14506 0.0806234 2.3815e-21)
(-0.0957069 0.0709163 -3.36804e-21)
(-0.0575638 0.052444 0)
(-0.0759386 0.0589796 2.79832e-21)
(-0.0918683 0.0547522 -2.40034e-22)
(-0.0834251 0.0470379 0)
(-0.024932 -0.0547202 -4.19627e-21)
(-0.0490755 -0.0950136 4.10557e-21)
(-0.0595058 -0.102589 2.88711e-21)
(-0.0951222 -0.138295 0)
(-0.107705 0.031753 1.0204e-20)
(-0.141138 0.0342284 0)
(-0.168896 0.0188883 5.66236e-21)
(-0.121306 -0.116499 1.30633e-22)
(-0.15264 -0.0268249 1.53358e-21)
(-0.151435 -0.124327 -4.2194e-21)
(-0.179978 -0.0561357 8.46574e-21)
(-0.0139528 -0.0251663 -4.96204e-22)
(-0.0255728 -0.0430849 0)
(-0.126001 0.0107815 0)
(-0.0850562 0.00383997 -5.14552e-22)
(-0.102854 0.00502772 5.18698e-22)
(-0.223804 0.0441765 -3.00818e-21)
(-0.234481 0.0542625 2.64529e-21)
(-0.150074 0.0166039 0)
(-0.184905 0.0256335 -2.45617e-21)
(-0.201141 0.0351548 2.95873e-21)
(-0.199204 0.0864323 1.24116e-21)
(-0.23928 0.0767393 -2.0177e-21)
(-0.232762 0.0817398 -2.56042e-21)
(-0.218729 0.0602196 -3.409e-21)
(-0.219071 0.0716442 6.75998e-22)
(-0.17634 0.0843021 0)
(-0.148085 0.084387 0)
(-0.134583 0.0828127 0)
(-0.107078 0.0793817 -2.97557e-21)
(-0.0874863 0.0727872 -1.67581e-21)
(-0.0674371 0.0661595 3.98957e-21)
(-0.050524 0.0542426 0)
(-0.00780821 0.0145308 0)
(-0.00500028 0.00961297 -6.67878e-22)
(-0.0142645 0.0259835 3.59746e-21)
(-0.0228606 0.0350527 -3.15359e-21)
(-0.0363439 0.047146 0)
(-0.0258677 0.0329081 -5.85683e-21)
(-0.0393735 0.0403139 3.7549e-23)
(-0.0107523 0.0154354 0)
(-0.0146975 0.0201785 -4.59986e-21)
(-0.00493235 0.00587246 0)
(-0.0416688 0.0354733 1.35509e-23)
(-0.0597455 0.0401226 2.05761e-23)
(-0.0589253 0.0304359 3.55591e-21)
(-0.0924774 0.0259524 -4.32545e-21)
(-0.0363801 -0.0479452 8.81292e-21)
(-0.0604566 -0.0669809 -1.85481e-20)
(-0.0882026 -0.0672152 3.95111e-21)
(-0.0877721 0.00901533 -2.28004e-21)
(-0.0965974 -0.0379661 8.37686e-21)
(-0.117174 -0.0226109 -5.88531e-21)
(-0.00689974 -0.00708569 0)
(-0.0130812 -0.01546 0)
(-0.0161966 -0.0167646 -3.64655e-21)
(-0.0323219 -0.0283287 -5.33373e-21)
(-0.00421465 0.0068073 5.65154e-22)
(-0.117802 0.0104123 1.25358e-21)
(-0.0697784 0.000824206 0)
(-0.0874979 0.00282376 -1.09678e-21)
(-0.146697 0.0292956 1.49046e-21)
(-0.173552 0.0375336 -4.45782e-21)
(-0.189328 0.0550469 -8.10649e-23)
(-0.162312 0.0678479 4.04891e-21)
(-0.181563 0.0761239 -4.75263e-21)
(-0.16906 0.081505 3.23332e-21)
(-0.0990738 0.0791435 -3.93071e-21)
(-0.12848 0.0781556 6.07468e-23)
(-0.125915 0.0828385 1.11158e-21)
(-0.0371313 0.0531443 4.04606e-21)
(-0.0566206 0.0645333 -4.42151e-23)
(-0.0786191 0.0718111 1.95872e-21)
(-0.0111591 0.0273598 1.76765e-21)
(-0.027356 0.0448926 -2.14114e-21)
(-0.00631022 0.0177599 -1.5888e-21)
(-0.0165694 0.0185394 5.23522e-21)
(-0.0262066 0.0239901 0)
(-0.0050406 0.00498503 4.11263e-21)
(-0.00739783 0.0075074 -7.26837e-21)
(-0.0022275 0.000334504 0)
(-0.00222385 0.000331359 0)
(-0.00450557 -0.00215489 -1.1554e-21)
(-0.0267811 0.0194253 5.2423e-21)
(-0.0413369 0.0217614 -1.58186e-23)
(-0.0412667 0.0142464 -1.0782e-20)
(-0.0632487 0.00757483 1.0884e-20)
(-0.0389572 -0.0179348 3.80771e-21)
(-0.0543259 -0.0178036 -3.09013e-21)
(-0.0479336 -0.00261604 -3.8081e-21)
(-0.00654742 -0.00306609 7.17178e-22)
(-0.0130968 -0.0071272 2.03319e-21)
(-0.0214441 -0.00661939 1.40881e-21)
(-0.00507079 0.0134523 -3.05321e-21)
(-0.0292678 0.0495619 0)
(-0.0616456 0.0639632 0)
(-0.093155 0.0360261 3.94697e-21)
(-0.108838 0.0553759 -2.76841e-21)
(-0.101073 0.0672051 0)
(-0.0222626 0.00259976 3.06213e-23)
(-0.0626328 0.0148127 0)
(-0.0100257 0.0309579 -1.03652e-22)
(-0.000829141 0.00176135 -6.08664e-22)
(-0.00021745 0.00204855 2.99376e-21)
(-0.00929455 0.00687198 7.49976e-21)
(-0.0147087 0.010571 0)
(-0.00154204 -0.000792417 -3.39872e-21)
(-0.00344525 0.00062624 -1.07878e-20)
(-0.000489262 -0.00230144 5.95605e-21)
(-0.00139581 0.00147376 4.21849e-22)
(-0.00537964 -0.000676567 0)
(-0.0158989 0.00597512 0)
(-0.0257733 0.00784355 0)
(-0.0282703 0.000492487 0)
(-0.00745293 -0.000584954 4.81293e-21)
(-0.0162929 -0.00291912 -4.11252e-21)
(-0.0185739 0.000574325 0)
(-0.0013211 0.00993866 0)
(-0.000409793 0.00166581 2.7225e-21)
(0.000580089 0.00166811 -6.82893e-21)
(0.00065177 0.00195432 1.18869e-20)
(0.000635406 0.00178162 -7.18397e-21)
(0.000874787 0.00122638 -2.33877e-21)
(0.000468722 0.000635532 0)
(-0.00314199 -8.8723e-05 3.51874e-21)
(-0.00669343 0.00129197 0)
(0.000156584 -0.00293429 0)
(-0.000223301 -0.00243913 0)
(0.00022541 -0.00302217 -1.29477e-21)
(-0.000777947 0.00109885 2.23582e-21)
(-0.00308782 0.000834525 0)
(-0.00238779 0.000434761 6.76851e-21)
(-0.0046323 0.000682501 1.79024e-21)
(-0.00598525 0.00148012 -6.75078e-21)
(0.00116018 0.00146309 0)
(0.000773397 0.00130171 5.27914e-21)
(0.00124108 0.00107019 8.56215e-21)
(0.0014899 0.00124994 -9.71163e-21)
(0.000673556 0.000345525 -1.74315e-22)
(0.00121925 0.000655623 7.23279e-21)
(0.000782098 -0.00231899 1.45299e-21)
(0.000204459 -0.00132559 -1.08956e-21)
(0.000750253 -0.00229626 -8.36623e-21)
(0.000954091 -0.00268574 1.14318e-20)
(0.0011986 -0.00254122 0)
(0.00133495 0.000953118 -5.358e-21)
(0.000533676 0.000832153 -7.84286e-21)
(0.00172 -5.53588e-06 1.1628e-20)
(0.00158759 -0.00102073 0)
(0.00107264 -0.00147834 0)
(0.000583589 -0.000819984 4.46027e-21)
(0.00197074 0.000841678 3.35733e-21)
(0.00209777 0.000794764 -5.95496e-21)
(0.0014443 0.000458105 -1.30425e-22)
(0.00190955 0.000597382 1.78967e-24)
(0.00158006 -0.00134358 0)
(0.00194974 -0.00163221 1.9505e-21)
(0.00220259 -0.00110374 -1.68503e-21)
(0.00255715 0.000271568 -4.16473e-24)
(0.0024605 -0.000550965 7.99862e-22)
(0.0024759 -0.000120433 6.32241e-21)
(0.000882502 -0.00039158 -5.91228e-21)
(0.00160511 -0.000761125 0)
(0.0020194 0.000250986 -8.83113e-21)
(0.00245004 0.00019921 4.21039e-21)
(0.00220552 -3.67443e-05 4.4837e-21)
(0.00189732 -0.000437525 0)
(0.00231352 -0.000458457 -4.91229e-21)
)
;

boundaryField
{
    movingWall
    {
        type            fixedValue;
        value           uniform (1 0 0);
    }
    fixedWalls
    {
        type            noSlip;
    }
    frontAndBack
    {
        type            empty;
    }
    defaultFaces
    {
        type            empty;
    }
}


// ************************************************************************* //
