/*--------------------------------*- C++ -*----------------------------------*\
  =========                 |
  \\      /  F ield         | OpenFOAM: The Open Source CFD Toolbox
   \\    /   O peration     | Website:  https://openfoam.org
    \\  /    A nd           | Version:  8
     \\/     M anipulation  |
\*---------------------------------------------------------------------------*/
FoamFile
{
    version     2.0;
    format      ascii;
    class       volScalarField;
    location    "9000";
    object      k;
}
// * * * * * * * * * * * * * * * * * * * * * * * * * * * * * * * * * * * * * //

dimensions      [0 2 -2 0 0 0 0];

internalField   nonuniform List<scalar> 
4109
(
0.0294943
0.031043
0.0297417
0.0310132
0.0317424
0.0314662
0.0319627
0.030149
0.0330109
0.0325452
0.0325709
0.0333187
0.0298539
0.0316906
0.0324089
0.0337109
0.0334959
0.03351
0.0338681
0.0325537
0.0298961
0.0313772
0.0314084
0.0345923
0.0346237
0.0350342
0.0295896
0.0316266
0.0298773
0.0348557
0.0335083
0.0328099
0.0313514
0.0312918
0.0322218
0.0351654
0.0350532
0.0361743
0.0318921
0.0298504
0.0315745
0.0317704
0.0302765
0.0355139
0.0341217
0.0954986
0.0476969
0.0334849
0.0329026
0.0312278
0.0322423
0.0358539
0.0366372
0.0379046
0.0336111
0.0317953
0.0293667
0.0318968
0.0323664
0.0331424
0.0328778
0.121501
0.0367272
0.035103
0.0344442
0.0413684
0.0870557
0.0337479
0.0327674
0.032478
0.0393814
0.0373379
0.0425474
0.0413715
0.0411864
0.0341541
0.0340534
0.0326716
0.0311607
0.0328943
0.0325822
0.0329289
0.0334803
0.0336154
0.0384336
0.0452481
0.100135
0.131035
0.132405
0.0379105
0.0375049
0.0358032
0.0351128
0.0345493
0.0379187
0.0665845
0.033731
0.032553
0.0427003
0.0410166
0.0398859
0.0429949
0.043713
0.0432582
0.0434024
0.0352869
0.0347658
0.0339323
0.0321073
0.0341316
0.0388427
0.0333685
0.0338816
0.0341181
0.0346739
0.138189
0.0527401
0.066445
0.0893284
0.140016
0.137565
0.0432812
0.0397092
0.0385823
0.036838
0.0361073
0.0354207
0.0344089
0.0669136
0.0343769
0.033823
0.043123
0.0417124
0.0448116
0.0440366
0.0455689
0.0443332
0.035968
0.0356532
0.035574
0.0337214
0.0348149
0.0399887
0.0339471
0.0345554
0.0350241
0.0352687
0.124844
0.0734864
0.140774
0.0934776
0.143829
0.0503996
0.0405643
0.0394826
0.0376552
0.0368704
0.0361797
0.0354503
0.0343712
0.0614681
0.0330965
0.0426388
0.0412535
0.0456743
0.0437598
0.046447
0.0468461
0.0476455
0.0371339
0.0366137
0.0363302
0.0345556
0.0357998
0.041213
0.0347742
0.0354559
0.0356977
0.0363704
0.0857398
0.156852
0.0884665
0.147533
0.147755
0.0511643
0.038783
0.0397309
0.0378945
0.0361463
0.0370806
0.0356197
0.067307
0.0340214
0.0409557
0.0420216
0.0451887
0.0433404
0.0464316
0.0480914
0.0477229
0.0507254
0.0379033
0.0376177
0.0376497
0.0361746
0.0360476
0.0414334
0.035504
0.0361264
0.0367111
0.0370907
0.088306
0.158454
0.154123
0.0931478
0.157213
0.0507772
0.0388934
0.0400826
0.0375246
0.0364907
0.0688104
0.0349004
0.0411787
0.0424252
0.0445454
0.0436488
0.0459791
0.0480246
0.0491898
0.051137
0.053491
0.0391801
0.0385742
0.0383981
0.0372315
0.0369123
0.042461
0.0370112
0.0362537
0.0400884
0.0375824
0.0382753
0.0848955
0.166445
0.0967906
0.161538
0.163426
0.0516313
0.0392031
0.0399782
0.0378984
0.0722201
0.0353614
0.0415115
0.0424202
0.0449574
0.0439934
0.0463103
0.0473383
0.0495491
0.0514384
0.0529531
0.0570317
0.0401948
0.0393394
0.0387303
0.0410629
0.0372225
0.0428824
0.0374982
0.0414014
0.0391362
0.0387238
0.173586
0.0846208
0.168896
0.100559
0.173553
0.0522197
0.178178
0.0390003
0.0403526
0.0738825
0.0361639
0.0414869
0.0426744
0.0450577
0.0440033
0.0466197
0.0476818
0.0489256
0.0514043
0.0533722
0.0562288
0.0566062
0.0607034
0.0393255
0.0407661
0.0390695
0.0422313
0.042458
0.0379198
0.0437161
0.0391343
0.0404115
0.0397641
0.0849744
0.181519
0.175601
0.0991218
0.179869
0.0529392
0.192185
0.184677
0.201925
0.165711
0.185362
0.156429
0.088334
0.0370752
0.0403179
0.0423367
0.0432174
0.0439443
0.0454341
0.0467571
0.0477076
0.0491797
0.0578432
0.0504672
0.0532129
0.0559856
0.0613238
0.0648614
0.0632742
0.0693733
0.0416362
0.0411542
0.043447
0.0438744
0.0414032
0.0392329
0.0452226
0.0398998
0.0409902
0.0874947
0.194267
0.181037
0.0528677
0.291805
0.259642
0.201859
0.172462
0.195364
0.221414
0.0754763
0.0759825
0.0811417
0.159978
0.149359
0.151417
0.148046
0.159317
0.150568
0.0387248
0.0452368
0.0452818
0.045987
0.0606697
0.0470051
0.0479489
0.0493293
0.0507211
0.0577031
0.0522391
0.0552907
0.0651246
0.0617056
0.0681428
0.0678822
0.0765104
0.0808355
0.0429087
0.0436708
0.0450706
0.0450186
0.0427835
0.0421231
0.0402972
0.0449208
0.0414816
0.0915159
0.218408
0.302446
0.258241
0.177273
0.194673
0.221846
0.0795141
0.0814118
0.0869646
0.0826626
0.085638
0.132775
0.139184
0.139541
0.147218
0.160072
0.240387
0.119266
0.0441233
0.0474645
0.0471608
0.0600608
0.0611583
0.0491738
0.0491161
0.0506094
0.0523905
0.05714
0.0540081
0.0657927
0.0637523
0.0692208
0.0721347
0.0768433
0.0786503
0.0456585
0.0449447
0.0423631
0.0475729
0.0465223
0.0439286
0.0434544
0.0497167
0.0429093
0.041791
0.0498502
0.0973064
0.294377
0.324317
0.260233
0.176716
0.19758
0.225335
0.0820357
0.0895074
0.0979474
0.087682
0.0919248
0.122685
0.10927
0.0871524
0.0904033
0.129305
0.137202
0.147586
0.158635
0.25767
0.211414
0.0650544
0.0491779
0.0496755
0.0593154
0.0612047
0.050286
0.0506705
0.0523627
0.0541236
0.0560351
0.0663927
0.0639626
0.0696927
0.0728347
0.0749041
0.0782349
0.0475254
0.0496678
0.0476117
0.0438727
0.043934
0.0454458
0.0467594
0.0447534
0.0509279
0.0485202
0.169915
0.222053
0.0434372
0.0412711
0.304913
0.257193
0.255513
0.326934
0.265677
0.17739
0.199507
0.230036
0.0861815
0.0808368
0.0934813
0.0994577
0.0972087
0.107371
0.118065
0.0920539
0.0961632
0.127289
0.134558
0.147115
0.162411
0.318264
0.273432
0.319553
0.0649522
0.0524517
0.0511498
0.0581017
0.0604347
0.0523506
0.0522429
0.0538896
0.0560982
0.0628431
0.0655458
0.0683769
0.0715453
0.07466
0.0773511
0.0791724
0.05073
0.0507087
0.0453181
0.0450457
0.0462647
0.0476403
0.0493121
0.0529671
0.0500676
0.0451153
0.0510817
0.0557011
0.31422
0.260681
0.243283
0.192409
0.191702
0.331402
0.261553
0.17987
0.190323
0.209855
0.0906919
0.0845432
0.0826235
0.117015
0.102104
0.106039
0.0975871
0.101434
0.125649
0.133304
0.149907
0.164021
0.0870255
0.350403
0.329272
0.352845
0.0777315
0.0551256
0.0538547
0.0581752
0.0604453
0.0540305
0.053913
0.0560533
0.0628485
0.0654781
0.0682847
0.0713624
0.0739964
0.0759228
0.0790992
0.0798322
0.0532129
0.054194
0.0469656
0.046971
0.0482613
0.0496738
0.0508926
0.0548004
0.0517955
0.0508242
0.0469149
0.0479011
0.311106
0.166955
0.230566
0.222495
0.192826
0.334703
0.262779
0.175032
0.195203
0.215467
0.241861
0.0956993
0.0839857
0.0893884
0.0840318
0.103494
0.114226
0.108682
0.12574
0.138973
0.152621
0.160453
0.0879188
0.386884
0.371464
0.405546
0.0809043
0.0590802
0.055964
0.0604228
0.0579751
0.0560394
0.0561971
0.062665
0.0653808
0.0709957
0.0679701
0.0733245
0.0758573
0.0759436
0.0787375
0.0821516
0.056871
0.056096
0.0573878
0.0489199
0.04873
0.0508966
0.0524992
0.0535602
0.0530926
0.048764
0.0504333
0.316673
0.255876
0.144123
0.150031
0.205882
0.197877
0.174268
0.271596
0.331827
0.178324
0.194489
0.211276
0.236283
0.101053
0.0855576
0.0936484
0.0868776
0.0896802
0.110237
0.114315
0.106576
0.127834
0.140724
0.150769
0.164765
0.114236
0.425763
0.426244
0.439763
0.0927077
0.0628301
0.0580683
0.0606818
0.0582861
0.0580182
0.0632399
0.0653627
0.0704025
0.0681895
0.0741608
0.0760722
0.0781836
0.0808138
0.0838558
0.060124
0.0598697
0.0596107
0.0555849
0.0509802
0.0510868
0.0525645
0.0534746
0.0544421
0.0507345
0.0545744
0.332287
0.280528
0.242757
0.220205
0.125446
0.133328
0.147221
0.189091
0.178081
0.162938
0.112964
0.273096
0.326601
0.331985
0.177865
0.194801
0.22557
0.211583
0.0993951
0.0881184
0.0924774
0.0893792
0.112206
0.119609
0.105151
0.165273
0.130088
0.137725
0.152394
0.113134
0.473119
0.482265
0.505304
0.0599303
0.0994875
0.0645933
0.0611476
0.0607656
0.0666949
0.0651655
0.0716397
0.0720623
0.0693426
0.0750061
0.07838
0.0814371
0.0646472
0.0625503
0.0620266
0.0576443
0.0568251
0.0527315
0.05225
0.0541413
0.0559709
0.0525817
0.0562067
0.0689927
0.0741642
0.276864
0.245261
0.214982
0.196168
0.120339
0.135278
0.150085
0.170769
0.160963
0.108479
0.0999264
0.0926451
0.0825023
0.0790683
0.316712
0.265745
0.316411
0.271536
0.166291
0.179113
0.192034
0.220965
0.0985759
0.0905874
0.0934058
0.120369
0.112729
0.105503
0.102385
0.152049
0.151899
0.129711
0.141208
0.13682
0.561928
0.529973
0.526419
0.0666897
0.101152
0.0631769
0.0643515
0.072165
0.0683713
0.0746814
0.0773103
0.0802705
0.0648863
0.0643759
0.059975
0.0586213
0.0573937
0.0549059
0.0544396
0.0561992
0.0607747
0.054678
0.0761813
0.0696918
0.0729739
0.240222
0.219898
0.193322
0.175527
0.120687
0.137632
0.147274
0.15429
0.11371
0.0996839
0.102293
0.0776867
0.0909418
0.0802071
0.0844412
0.270056
0.251219
0.237679
0.216712
0.160549
0.174382
0.199627
0.149446
0.0968164
0.0934655
0.117314
0.108098
0.113227
0.106384
0.100771
0.142453
0.14388
0.130359
0.109721
0.615705
0.595857
0.585939
0.0835012
0.106011
0.0673846
0.0611327
0.0717542
0.0755895
0.078888
0.0673075
0.0623843
0.0612878
0.0601526
0.0581436
0.0566674
0.0559435
0.0586192
0.0562866
0.0741112
0.0703321
0.211557
0.215162
0.197772
0.17387
0.157331
0.127472
0.135488
0.140605
0.116536
0.110487
0.102395
0.078811
0.0817585
0.0956394
0.0849412
0.0893226
0.224162
0.214856
0.211726
0.196732
0.140615
0.162656
0.171076
0.151435
0.194424
0.0963315
0.12077
0.11463
0.111044
0.10422
0.0994698
0.123612
0.130032
0.131213
0.115757
0.730867
0.686992
0.732731
0.133457
0.0708371
0.0790753
0.074713
0.0781523
0.0650864
0.063498
0.0619533
0.0605186
0.0588309
0.0584204
0.0597668
0.058753
0.0741442
0.0679301
0.194005
0.195429
0.176158
0.155573
0.1426
0.125506
0.129216
0.116374
0.108725
0.101897
0.0777907
0.0812213
0.0959921
0.0856277
0.0902391
0.196333
0.189997
0.172801
0.126195
0.132678
0.142127
0.150054
0.175249
0.112162
0.107061
0.101981
0.117577
0.11505
0.122635
0.126135
0.855456
1.17247
0.321301
0.075021
0.0880432
0.0781156
0.0665036
0.0650156
0.0628517
0.0610206
0.0603374
0.0621995
0.0711032
0.0691893
0.175154
0.173412
0.156032
0.141084
0.130885
0.119481
0.111175
0.103882
0.0975483
0.0744834
0.0782483
0.0918788
0.0823183
0.0868735
0.171672
0.173264
0.15635
0.127904
0.133963
0.140934
0.12328
0.155992
0.108651
0.104318
0.112294
0.113359
0.118378
0.198912
1.66905
1.61396
0.57945
0.0801067
0.122184
0.0672455
0.0655821
0.0627102
0.0633863
0.0690063
0.0726282
0.0706923
0.156781
0.156541
0.14143
0.129762
0.12095
0.112623
0.105219
0.0989907
0.0758742
0.079843
0.0932562
0.0837555
0.0884257
0.154182
0.154669
0.142085
0.125249
0.129737
0.118804
0.141626
0.106208
0.10896
0.109898
0.112766
4.05694
0.331377
2.33334
2.47953
1.16872
4.49716
0.0682296
0.0658028
0.0670721
0.0668078
0.0772085
0.0734344
0.0713263
0.139985
0.140841
0.130337
0.120652
0.112196
0.10549
0.0990715
0.0773421
0.0806352
0.0940964
0.08502
0.088967
0.13751
0.137775
0.13022
0.119148
0.112973
0.127975
0.130351
3.27196
3.60161
0.63591
3.5997
3.58061
4.88545
3.96712
6.43343
0.0691852
0.0659336
0.0704063
0.0706094
0.0942998
0.0744883
0.0709336
0.13114
0.130744
0.120701
0.112466
0.105464
0.0995873
0.0780783
0.0817625
0.094423
0.089892
0.0856633
0.129611
0.122246
0.113346
0.120803
0.12326
0.122457
2.21321
2.86071
3.18087
1.2075
4.51388
3.48159
6.2003
6.25907
0.0709381
0.0705048
0.0754194
0.134857
0.075358
0.0715701
0.11844
0.118977
0.11166
0.104913
0.0994222
0.0779734
0.0825347
0.094641
0.0904025
0.0862713
0.122343
0.115437
0.116252
0.11843
0.116892
0.116214
1.93749
1.81005
2.49666
2.7843
3.44223
5.86311
4.10794
3.02888
5.86391
6.05951
0.0731588
0.0746853
0.0803195
0.0744932
0.0754619
0.0775515
0.114041
0.106965
0.102066
0.0968117
0.0814784
0.0818165
0.093736
0.0890156
0.0867671
0.115173
0.112629
0.113614
0.1119
0.110957
1.52363
1.47792
2.16407
2.39533
6.31073
2.98069
5.59534
5.42199
3.68329
2.58989
5.49534
5.85223
0.0749051
0.0774299
0.0775024
0.0788068
0.0819798
0.109998
0.105375
0.101391
0.097038
0.0836363
0.0848373
0.0936755
0.0902974
0.0875766
0.109164
0.107279
0.105298
6.14531
1.19371
1.20132
1.84531
1.9831
5.89549
2.58139
5.25549
5.15523
4.96543
3.23842
2.13142
5.09656
5.6407
0.0772138
0.0780763
0.0802058
0.0816227
0.104231
0.102421
0.0998781
0.0967539
0.0841733
0.0862861
0.0938315
0.091067
0.0885802
6.73648
5.5712
0.934039
0.961499
1.5115
1.46831
5.43182
2.22569
5.10378
4.80246
4.70496
4.49126
2.7442
1.57446
4.65453
5.42233
7.73316
6.19699
5.00122
0.725807
0.737773
1.09829
0.599071
4.94337
1.88827
4.96105
4.68353
4.35603
4.24519
3.98884
2.11212
0.670561
4.12981
5.19139
8.44005
7.33099
5.61366
4.43765
0.548987
0.491951
0.398231
4.42931
1.55365
3.49771
4.65102
4.26093
3.9131
3.76526
3.4252
1.04662
3.41843
9.75387
7.95959
6.86666
4.99701
3.87228
0.367092
0.127305
3.85906
1.36383
2.74133
3.05177
4.32786
3.83826
3.46222
3.2365
2.71292
2.17259
11.2507
8.9936
7.49143
6.33893
4.35528
3.27661
0.0832304
3.12215
1.42688
2.37748
2.63009
3.9891
3.40483
2.97489
2.57837
1.51237
11.9113
11.2494
8.11747
6.99975
5.69176
3.6744
2.56208
1.71905
1.3082
1.27815
2.05771
2.21943
3.62346
2.93474
2.37905
1.48412
12.1578
11.6026
11.0361
7.17298
6.48473
4.91502
2.88611
1.35726
1.48533
1.1987
1.14334
1.76383
1.80861
3.20546
2.35884
1.39296
8.17503
12.1527
11.0714
10.6057
6.18284
5.89769
3.9589
1.65557
1.59759
1.38048
1.09208
1.01809
1.481
1.38873
2.6675
1.41479
6.91283
8.05308
11.8923
10.3361
9.95351
5.15161
5.09634
2.58098
1.60919
1.48253
1.273
0.984471
0.895891
1.19419
0.949152
1.76073
6.28384
6.61767
7.70339
11.4238
9.48946
9.03233
4.3
3.43158
1.51209
1.49314
1.36503
1.15979
0.870462
0.763203
0.869331
0.468764
6.30053
6.10062
6.19759
7.18201
10.7364
8.57162
7.6902
3.14194
1.33094
1.40528
1.37476
1.24211
1.03576
0.740078
0.587386
0.403775
6.85521
6.09894
5.78554
5.70567
6.53315
9.79476
7.57596
5.36048
1.42722
1.21903
1.29608
1.25104
1.10838
0.889715
0.566446
0.262973
8.06919
6.54552
5.7731
5.38077
5.15945
5.76523
8.36963
6.01964
2.64723
1.27943
1.11041
1.18127
1.11655
0.952081
0.691106
0.250253
11.982
7.93658
6.12371
5.36318
4.90175
4.54634
4.85301
5.79921
3.54034
2.30467
1.14511
1.00098
1.05553
0.959442
0.741503
0.334382
11.7335
11.9961
7.58727
5.63228
4.882
4.34091
3.82073
3.8065
4.9557
3.08101
1.9987
1.02009
0.88503
0.907582
0.747944
0.371148
11.0705
11.4277
11.7399
7.08258
5.08464
4.31973
3.65491
2.88934
5.13981
4.64457
2.64867
1.71434
0.897675
0.75254
0.706808
0.377031
9.77046
11.0596
10.8596
11.2721
6.48421
4.47021
3.63163
2.76434
5.23689
4.71749
4.3228
2.23237
1.43928
0.764132
0.576798
0.348456
8.42141
8.97983
10.8031
10.0086
10.5411
5.80404
3.73788
2.73028
5.56608
4.78086
4.2922
3.98423
1.81866
1.15983
0.5873
0.259314
7.78177
7.95757
8.07738
10.2734
8.93571
9.41617
4.99574
2.78424
5.85961
5.12652
4.33425
3.86732
3.6186
1.39774
0.842406
0.262759
6.75365
7.37529
7.52435
7.11488
9.44979
7.62401
7.54218
3.87702
6.65206
6.26591
5.42418
4.67814
3.89323
3.43159
3.19913
0.951807
0.38302
6.13641
6.21801
6.90123
7.08018
6.09795
8.27044
6.08185
5.09176
5.08219
6.44231
5.93825
4.97187
4.22029
3.44414
2.95747
2.65529
0.456097
6.24885
5.56149
5.63685
6.35881
6.58563
5.07175
6.73972
3.75101
3.40924
4.53481
4.68561
6.22477
5.5694
4.49925
3.74157
2.95733
2.37275
1.72601
5.84666
4.99025
5.01997
5.72175
6.01876
4.29313
5.87773
2.94514
2.06755
4.31036
4.02609
4.25835
6.00313
5.16697
3.99677
3.21257
2.36039
1.40382
2.44221
3.5627
5.39506
4.42602
4.37658
4.94923
5.22851
3.38306
2.53819
1.63346
3.8245
3.54567
3.81481
5.7778
4.71738
3.4315
2.55237
1.35589
1.98635
3.13529
4.91534
3.86113
3.69311
3.99723
3.51359
2.18631
1.28405
3.37746
3.09092
3.34965
5.54628
4.18031
2.71243
1.43971
1.61967
2.74885
4.4089
3.26643
2.90131
2.62674
1.8577
1.00827
2.95769
2.64623
2.83212
5.3009
3.44647
1.48559
1.31466
2.39045
3.84373
2.55482
1.67942
1.55593
0.786182
2.54656
2.17948
2.16822
2.1459
1.05069
2.04461
3.11359
1.35928
1.36849
0.596163
2.11087
1.60585
1.04411
0.805777
1.68126
1.73075
0.39962
1.56796
0.662515
0.539042
1.23207
0.0959244
0.646637
0.148613
0.474807
0.0862871
0.084341
0.0856279
0.0856375
0.0870849
0.0868568
0.0875061
0.0875386
0.0882495
0.0827381
0.0838419
0.0842684
0.085468
0.0857856
0.086933
0.0875458
0.0918808
0.0933113
0.0946483
0.0968904
0.0983394
0.0884445
0.0892436
0.0882733
0.0884321
0.0887419
0.0883792
0.0896063
0.0893372
0.0903769
0.101025
0.102182
0.0814157
0.0825201
0.0831421
0.0842319
0.0848572
0.0858043
0.0867988
0.0878894
0.0888484
0.0898277
0.09093
0.0923018
0.0941046
0.0955563
0.0986392
0.100127
0.105621
0.106369
0.0902313
0.0911045
0.0921596
0.0931223
0.0944971
0.0959429
0.098319
0.089636
0.0900937
0.0896198
0.0896329
0.0905179
0.0898747
0.0918757
0.0913561
0.0927015
0.0981489
0.0999633
0.11061
0.112282
0.104862
0.104615
0.109686
0.0804111
0.0814372
0.0823019
0.083311
0.0842611
0.0852602
0.0864638
0.0873951
0.0891253
0.0902101
0.0916743
0.0929584
0.0969495
0.0983621
0.101503
0.102626
0.107155
0.108412
0.113546
0.11569
0.122038
0.122161
0.129141
0.0910777
0.0918019
0.0927627
0.0937809
0.0952507
0.0908135
0.0910863
0.0911649
0.090853
0.0924218
0.0916465
0.09512
0.094064
0.0933457
0.0956634
0.0993149
0.099546
0.104589
0.106212
0.125769
0.113778
0.121425
0.110549
0.113449
0.0800081
0.0809385
0.0820797
0.0830784
0.0843393
0.0852571
0.0867489
0.087644
0.0892619
0.0902191
0.092469
0.0945895
0.102682
0.0998985
0.106148
0.10863
0.1131
0.114587
0.119458
0.129183
0.134842
0.135689
0.149419
0.152047
0.145759
0.154284
0.154859
0.19603
0.0920557
0.0928139
0.0936347
0.0945888
0.097469
0.0962249
0.0920966
0.0921329
0.092779
0.0923017
0.0952382
0.0942257
0.0934811
0.0996737
0.0983497
0.0959516
0.098394
0.100291
0.248573
0.214708
0.307446
0.104699
0.105011
0.110516
0.112753
0.127357
0.129456
0.165346
0.144596
0.121895
0.127933
0.0807335
0.0813248
0.0829504
0.083555
0.085355
0.0858911
0.0878756
0.0885774
0.0917968
0.0910531
0.095384
0.0967287
0.101615
0.103947
0.11343
0.111633
0.120855
0.129684
0.136652
0.137437
0.149273
0.714181
0.702209
0.493634
0.162256
0.171076
0.186351
0.192658
0.202506
0.217799
0.218381
0.491175
0.29283
6.43688
7.00329
6.85428
6.54011
7.1633
7.18525
6.95623
6.58285
0.093196
0.0935575
0.0945592
0.0954937
0.0971855
0.0961145
0.093479
0.0932972
0.0952796
0.0944605
0.0939421
0.1019
0.100517
0.0992003
0.0980619
0.0967061
0.0996337
0.105659
0.101569
0.104957
6.03574
5.06835
1.86221
1.31936
0.772636
0.174821
0.249571
0.305583
0.564785
0.112747
0.113117
0.114093
0.11365
0.125757
0.127852
0.139682
0.136039
0.164045
6.22914
6.91997
4.54351
7.14373
7.20549
7.19009
5.44513
6.07839
6.16737
7.17401
0.0869463
0.0845316
0.0886642
0.0873133
0.0910684
0.0900693
0.0936947
0.0935245
0.0966553
0.0964095
0.100433
0.100419
0.108184
0.111135
0.116728
0.115731
0.121448
0.146868
0.124613
0.1597
0.211115
0.203483
0.247596
0.24876
0.243951
1.28007
1.78648
3.42022
2.48527
1.29587
0.996575
0.356766
0.394852
0.498992
0.505185
1.02153
0.596147
0.580017
3.88693
6.05882
4.96679
5.26958
6.15834
6.6899
6.92247
6.91568
4.97661
4.92455
7.1285
7.08251
5.57532
5.79467
6.38225
7.0197
6.59972
6.96472
0.0944606
0.0946746
0.0955556
0.0968519
0.0972286
0.0962144
0.0957139
0.0950039
0.0946379
0.103986
0.102515
0.101115
0.0999381
0.0988843
0.0978917
0.09751
0.100506
0.100884
0.104796
0.105298
0.109692
0.104601
2.68341
4.5271
3.53021
5.91368
4.61585
1.67641
2.70605
1.43483
0.753055
0.113119
0.609605
0.199923
0.348369
0.256068
0.123227
0.120057
0.129094
0.124214
0.132174
0.130885
0.149126
0.143182
0.200208
6.2463
7.08737
5.94651
4.2895
4.70218
3.65273
7.32287
7.42628
7.24652
5.99579
4.5282
5.61469
0.188899
0.1032
2.1099
0.64677
0.135772
0.105385
0.124279
0.105204
0.119344
0.104646
0.117828
0.112408
0.109842
0.121426
0.120458
0.142992
0.175968
0.164954
0.201347
0.283265
0.252547
0.336656
0.661727
0.377476
0.407509
0.90317
1.02972
0.552116
0.485787
0.655933
0.63366
0.798796
0.799626
1.92859
2.54692
3.68293
2.97826
2.08568
1.51581
1.16543
1.16974
1.75774
1.31115
1.42969
4.9386
4.32204
5.1548
6.16953
5.8679
6.84971
6.64579
7.1052
7.01155
7.05404
5.22029
5.77689
6.98979
7.0039
6.84543
6.81374
6.5119
0.0976859
0.0956965
0.0957571
0.096603
0.0971998
0.0964497
0.0961673
0.0983386
0.106113
0.104606
0.103011
0.101721
0.100582
0.0994378
0.0988005
0.0978643
0.108095
0.10574
0.107976
0.110326
0.108803
0.110229
0.101436
0.101335
0.101774
0.103441
0.114074
0.108311
0.110144
0.105425
4.62929
4.09897
3.03574
0.983865
2.53519
1.74135
0.119663
0.133031
0.13154
1.09833
0.262695
0.561135
0.364415
0.143711
0.139774
0.152498
0.148558
0.17622
0.165187
0.276803
4.41604
6.61372
7.2223
6.23351
5.30805
7.45493
3.35782
3.90603
2.7268
7.66047
7.44845
6.66567
5.50172
4.00035
4.73895
4.74103
1.19315
0.340562
4.56659
3.58421
0.686528
0.334995
0.521601
0.25447
0.401541
0.216258
0.342346
0.182525
0.247503
0.445856
0.78017
0.55502
0.962867
0.620938
0.758317
1.34629
1.672
1.83004
1.18531
1.19741
1.86091
2.09381
1.24462
1.37536
1.67305
1.58408
1.95984
1.67452
3.94941
2.76642
3.31139
3.14342
2.68391
2.53689
2.90899
2.19029
2.70143
5.38871
4.5246
6.74405
6.05959
6.36853
7.07494
6.97274
6.92207
7.00159
6.52623
6.61405
0.10997
0.108458
0.0970661
0.098246
0.0975382
0.0969995
0.0970139
0.0985762
0.099699
0.104782
0.102922
0.102217
0.10075
0.100236
0.0991504
0.0988472
0.0980961
0.106734
0.104837
0.105984
0.107102
0.105415
0.106762
0.10112
0.101722
0.103027
0.105653
0.121053
0.113111
0.114791
0.108657
1.79903
2.65254
3.52821
0.129579
0.142644
0.141311
0.163915
0.15929
0.784249
1.83923
0.360371
0.70955
0.19926
0.182806
0.274078
0.236313
0.36971
3.5961
5.12893
4.76293
6.87823
6.9852
7.36259
7.79244
7.71815
2.65558
3.60403
7.40723
6.4709
5.72651
4.05234
4.76346
4.77068
2.08615
4.7946
5.11646
5.63866
3.79044
2.39501
5.78653
6.2773
3.38033
1.73731
2.62096
1.23136
2.01884
1.02326
1.35986
1.58046
1.20708
2.18776
1.79525
1.73112
1.70387
1.82585
2.77661
2.87104
2.99921
3.31609
2.53553
2.37397
3.40266
3.59109
2.57472
2.82586
3.30479
3.1157
3.49703
4.70757
4.18938
4.54837
3.71794
4.2638
4.23189
3.99032
4.41096
6.37137
5.7066
6.97056
6.81823
6.91199
6.92623
6.35247
6.45673
0.111828
0.109318
0.107507
0.106011
0.0985783
0.0984296
0.098741
0.0995352
0.100677
0.103867
0.102439
0.101764
0.100652
0.100238
0.0994199
0.0994641
0.103702
0.104573
0.103088
0.104272
0.103446
0.104478
0.102068
0.102156
0.103976
0.109987
0.105695
0.102616
0.130497
0.121544
0.122569
0.115439
0.138636
3.15781
2.29764
0.15475
0.151502
0.184809
0.179611
0.263518
0.313073
0.249672
0.790938
2.07693
0.956464
0.499661
0.417002
0.863509
5.0783
4.23281
7.38292
6.75892
7.96488
7.84928
7.56521
7.28722
6.88219
6.53692
0.210242
0.705231
4.68027
5.55243
1.28227
3.89436
5.77813
5.47017
6.30835
6.05846
5.52902
6.20883
5.92871
5.31246
5.37361
3.55656
4.28995
3.29623
2.9201
2.89801
4.23714
3.34014
4.18603
3.51518
3.69373
4.28974
4.6581
4.60097
4.7109
4.25142
4.11761
3.76101
4.91993
5.09274
4.25966
4.44563
5.11548
5.01075
5.81509
6.08014
5.63489
5.50622
5.81008
5.48564
5.69704
6.82138
6.70154
6.68394
6.725
6.07296
6.17643
0.0882837
0.109177
0.112428
0.111046
0.109207
0.106993
0.105569
0.104043
0.0996426
0.0998211
0.100159
0.100279
0.102644
0.102369
0.101658
0.10091
0.10042
0.10006
0.101264
0.102194
0.101461
0.102485
0.102115
0.103026
0.102246
0.106253
0.107071
0.116193
0.10518
0.106736
0.142545
0.126395
0.130072
0.11715
0.159421
0.186581
0.1682
4.47211
2.79425
0.25056
0.210505
0.491403
0.410019
1.21278
1.04786
0.887489
2.32611
3.05986
1.66104
7.34207
6.22799
8.09822
8.21481
7.96131
7.56327
7.10432
6.74557
0.14772
0.452871
4.10852
6.35621
0.843983
2.38459
6.33671
6.1556
5.94289
6.54578
6.07203
5.58297
6.9426
6.23692
6.87147
6.45788
6.04481
6.03675
5.64058
4.70225
4.75385
5.93712
5.4175
5.16834
5.39455
5.6115
5.49978
5.75635
5.68172
5.63643
5.58247
5.88754
5.13218
5.41448
5.92314
5.91106
5.63876
5.73437
6.03641
6.0764
6.29399
6.22862
6.63658
6.40295
6.38152
6.46202
6.51035
5.76744
5.92045
0.081315
0.0851405
0.089478
0.108353
0.111028
0.110167
0.108877
0.108317
0.106996
0.105156
0.102738
0.104171
0.107606
0.108723
0.101445
0.100387
0.0997177
0.0998976
0.100681
0.0999319
0.0998275
0.100273
0.100896
0.100628
0.101576
0.101466
0.102139
0.103061
0.105521
0.108905
0.114473
0.117239
0.110725
0.139046
0.163063
0.125758
0.142453
0.177293
0.231566
0.200921
0.251708
0.39023
0.285336
6.4104
5.35255
1.12276
0.823244
2.53312
1.9795
4.3887
5.80282
3.95264
8.41844
8.36899
8.51026
8.03182
7.71015
7.19649
0.132673
0.319928
3.27294
6.21642
0.558905
1.58583
6.09924
6.91301
5.33419
5.50436
6.6788
5.91889
6.84431
6.61161
5.25085
5.76539
6.50722
6.38555
6.50631
6.22902
6.43523
5.79591
5.99378
6.12474
6.12154
5.87704
5.92093
5.76591
5.79622
5.75979
5.65388
5.69986
5.57777
5.42391
5.41713
5.94674
5.93599
5.96755
5.85146
6.00732
5.9583
5.98532
5.86753
5.99554
6.23296
6.29597
6.0069
5.58536
5.75087
0.0798495
0.0815368
0.0836428
0.0882623
0.0916167
0.107486
0.107288
0.106747
0.105892
0.105941
0.101945
0.103819
0.103085
0.104861
0.105327
0.105129
0.104386
0.105593
0.103394
0.103374
0.101401
0.101474
0.103491
0.100556
0.100017
0.100394
0.100161
0.101777
0.10029
0.100536
0.100848
0.101112
0.101414
0.101963
0.102343
0.105688
0.111402
0.107735
0.115623
0.124373
0.122114
0.13038
0.158469
0.182909
0.14247
0.16187
0.211584
0.277895
0.67779
0.612884
0.483353
0.912978
1.83421
1.79549
8.61837
7.78688
4.25402
4.43088
6.75182
7.92073
6.75621
9.19781
8.71951
8.49277
8.05712
0.125284
0.244898
2.48007
5.11463
0.386027
1.08093
5.20508
7.04067
5.64782
5.15755
6.79135
6.34768
5.66371
5.30653
4.96199
4.94023
6.01071
6.12619
5.20826
5.65344
5.40156
5.83875
5.75969
5.79515
5.78941
5.42195
5.45118
5.01486
5.00207
4.89214
5.17022
4.77347
4.62993
4.06477
3.69953
4.36655
4.45191
5.39107
5.81403
5.81715
5.30359
5.4027
5.45403
5.40811
5.04295
5.47752
0.104841
0.0799014
0.0807025
0.081905
0.08393
0.0863361
0.0905968
0.0941375
0.0809467
0.0809733
0.0825053
0.082259
0.084417
0.08374
0.0994837
0.0998617
0.0976154
0.0980873
0.0956137
0.0962185
0.0934574
0.094258
0.0866417
0.0856738
0.088993
0.087698
0.0912484
0.0921058
0.0898988
0.104495
0.103983
0.103446
0.103806
0.102818
0.102498
0.103224
0.102315
0.102511
0.101934
0.103083
0.100439
0.100736
0.098546
0.0988951
0.102416
0.100982
0.102221
0.100842
0.101601
0.101814
0.101609
0.101807
0.102011
0.102695
0.103012
0.103097
0.102796
0.103468
0.109282
0.10513
0.118748
0.112476
0.123759
0.13757
0.132744
0.148868
0.186253
0.235226
0.167978
0.200834
0.291995
0.635156
3.15449
2.39144
3.22861
1.46457
3.14189
5.21392
6.01892
9.54055
9.41459
8.3419
9.47479
8.53827
9.64845
8.86269
0.118469
0.195504
4.60831
1.71748
2.76434
0.285197
0.752135
6.1885
6.87942
5.79495
5.20491
6.58335
6.13321
6.62712
4.77334
4.68339
4.68908
5.27869
5.18844
4.42675
4.66451
4.68001
4.42979
4.85235
4.99539
4.53547
4.47186
4.07644
4.01889
3.53978
3.60961
3.83252
2.86451
2.8776
2.57348
2.58382
3.31423
4.85876
4.73327
3.61422
4.18027
4.02318
0.104963
0.0928529
0.0963949
0.0817861
0.0827049
0.084322
0.0866136
0.0892701
0.0826012
0.0829233
0.0837889
0.0838489
0.0852588
0.0851756
0.0966906
0.0972925
0.0948327
0.0956539
0.0928283
0.0938451
0.0907278
0.0920253
0.0870403
0.0866888
0.0887905
0.0901222
0.0883495
0.102436
0.101959
0.10172
0.102488
0.102299
0.100005
0.100502
0.100096
0.10115
0.0982451
0.0987095
0.0964144
0.0969365
0.102126
0.10278
0.102459
0.104147
0.103581
0.103977
0.10432
0.103833
0.104641
0.105741
0.104368
0.104615
0.104148
0.112437
0.107895
0.108359
0.126972
0.117322
0.133933
0.156698
0.151268
0.177462
0.208825
0.422222
0.20457
0.275191
0.615251
1.98662
6.16426
6.90178
6.07578
7.31979
3.96784
6.81079
8.48072
9.42406
10.4204
10.1282
10.2248
0.115953
0.145854
0.200845
2.92335
4.90772
1.11616
2.17676
0.444524
5.46918
6.40787
5.35434
4.77198
5.88371
5.50208
6.33774
6.4772
6.05857
5.81055
4.21267
4.36551
4.39345
4.2883
3.94383
4.01383
3.92848
3.81744
3.96299
3.98697
3.62793
3.60146
3.11157
3.19175
2.53068
2.64746
2.09506
2.14648
1.90804
1.82303
3.29271
1.83758
2.80838
4.94089
0.0959867
0.101718
0.0893727
0.0931586
0.0838974
0.0852589
0.0872024
0.0845403
0.0849116
0.0854564
0.0855393
0.086656
0.0866509
0.0947541
0.0953831
0.0931137
0.0938997
0.0913909
0.0922772
0.0897598
0.0908066
0.0882059
0.0892989
0.0879211
0.100931
0.100875
0.100874
0.100672
0.0982255
0.0990551
0.0987761
0.100148
0.0965682
0.0972839
0.0949501
0.0956691
0.102735
0.102125
0.104915
0.103951
0.109267
0.107572
0.110342
0.109467
0.106668
0.107683
0.110582
0.108397
0.106326
0.112145
0.107606
0.107726
0.121216
0.120601
0.139444
0.137129
0.17495
0.171343
0.23276
0.197708
0.317475
0.727679
0.261311
0.399733
1.72724
4.22482
6.45666
9.50492
9.57966
9.57646
9.78288
10.7238
10.6656
10.9666
0.709711
0.105832
0.109723
0.138185
0.181429
0.332201
3.99343
1.61549
2.42623
5.6102
4.40929
4.3739
4.8335
5.62516
6.04333
4.82453
5.30252
6.14281
6.08727
5.61302
5.1876
3.78879
3.97598
3.62141
3.63962
3.52904
3.54847
3.41327
2.95367
3.22991
3.19764
2.44872
2.638
1.98457
2.15579
1.63662
1.75712
1.49822
1.47359
0.0939031
0.0973805
0.0864616
0.0881898
0.0910276
0.0862996
0.0877653
0.0870141
0.0874329
0.0878751
0.0879424
0.093334
0.0942506
0.0916771
0.0929245
0.0903377
0.0914924
0.089036
0.0902304
0.0890403
0.101334
0.0999628
0.100115
0.100505
0.0973037
0.0981383
0.0998361
0.0982541
0.0957119
0.0966618
0.0943775
0.0951853
0.105276
0.104022
0.104051
0.107985
0.106117
0.114917
0.114251
0.113486
0.11583
0.122452
0.119686
0.120164
0.117317
0.116241
0.112355
0.110093
0.120132
0.116748
0.123323
0.146836
0.137025
0.216314
0.216951
0.1709
0.202913
0.311151
0.314291
1.00412
2.03344
0.89445
3.81588
5.78871
7.69231
10.4087
11.7781
11.5471
11.502
1.49565
2.00906
0.099968
0.539263
1.0271
0.107797
0.111907
0.119198
0.153649
0.19601
0.316294
3.901
3.15432
5.57888
5.13466
3.91077
4.27551
5.87291
5.97451
4.28928
4.80366
5.75766
5.58937
4.93929
3.37366
3.55622
2.95521
3.10187
3.11387
2.96441
2.52392
2.658
2.0908
2.27475
1.75614
1.89737
1.43176
1.60796
0.0966181
0.0890778
0.0922412
0.0944194
0.0947266
0.0884543
0.0900402
0.0886778
0.089538
0.0893461
0.0896048
0.0927244
0.0938908
0.0916055
0.0925775
0.0904045
0.0914576
0.0903344
0.0943908
0.100275
0.100002
0.101445
0.0992537
0.0981086
0.0970254
0.101699
0.0971247
0.0962067
0.0961251
0.105107
0.103395
0.10693
0.109559
0.1097
0.114808
0.113546
0.123174
0.12533
0.128372