/*--------------------------------*- C++ -*----------------------------------*\
  =========                 |
  \\      /  F ield         | OpenFOAM: The Open Source CFD Toolbox
   \\    /   O peration     | Website:  https://openfoam.org
    \\  /    A nd           | Version:  8
     \\/     M anipulation  |
\*---------------------------------------------------------------------------*/
FoamFile
{
    version     2.0;
    format      ascii;
    class       volScalarField;
    location    "9000";
    object      p;
}
// * * * * * * * * * * * * * * * * * * * * * * * * * * * * * * * * * * * * * //

dimensions      [0 2 -2 0 0 0 0];

internalField   nonuniform List<scalar> 
4109
(
-0.00551897
-0.0177658
-0.0087882
-0.0287333
-0.0298711
-0.0185166
-0.0286834
-0.0146575
-0.03919
-0.0396596
-0.0389813
-0.0429212
-0.00912327
-0.0228735
-0.0317486
-0.0463217
-0.0506821
-0.0466937
-0.04506
-0.0419488
-0.00271229
-0.032433
-0.032735
-0.0537384
-0.0545807
-0.0622104
-0.00304044
-0.00825845
-0.00559351
-0.0520173
-0.0455549
-0.0470214
-0.0299831
-0.086869
-0.0618064
-0.0572049
-0.0622086
-0.0762159
-0.016534
-0.00504399
-0.000180581
-0.0132437
0.000370313
-0.0560841
-0.0517958
0.0902577
-0.0558563
-0.0470798
-0.0550401
-0.0764269
-0.0682977
-0.0658396
-0.0716337
-0.0883988
-0.0239688
-0.0109659
-0.00519822
0.0150115
-0.00958166
-0.0210209
-0.0678238
0.0650814
-0.0616208
-0.0561822
-0.0523019
-0.0337091
-0.0585237
-0.0519298
-0.0577259
-0.053681
-0.105315
-0.0803908
-0.125607
-0.125497
-0.127074
-0.0299606
-0.0327591
-0.0231538
-0.0123311
-0.0206115
-0.0117976
-0.0150716
-0.0160051
-0.026177
0.0156351
-0.206771
0.123732
-0.236274
-0.00806122
-0.0811785
-0.0712117
-0.0614939
-0.0557003
-0.0533352
-0.0540875
0.0316514
-0.0530276
-0.0620118
-0.125359
-0.10877
-0.0978304
-0.13941
-0.137295
-0.145527
-0.151028
-0.0344365
-0.0374277
-0.0399132
-0.0230627
-0.00477223
0.0639417
-0.0153714
-0.0156197
-0.0236604
-0.0302215
-0.578978
0.112121
0.0118653
-0.00549661
-0.309713
-0.120344
0.261542
-0.0882469
-0.0777267
-0.0695244
-0.0562348
-0.0550325
-0.0464342
-0.074412
-0.0632846
-0.0569425
-0.119827
-0.111581
-0.148532
-0.133413
-0.178058
-0.166448
-0.0416019
-0.0475713
-0.0504266
-0.0340268
0.0085333
0.0595784
-0.0129574
-0.0243086
-0.0271612
-0.0345391
0.0879756
0.0820168
-0.215336
-0.100482
-0.137512
0.0954441
-0.0861857
-0.0841154
-0.0756655
-0.0600859
-0.048595
-0.0437185
-0.0396115
-0.00604926
-0.0286306
-0.10891
-0.0999372
-0.148004
-0.123327
-0.16622
-0.181386
-0.214668
-0.051987
-0.0581087
-0.0627531
-0.0509184
0.00797246
0.0295653
-0.0198819
-0.0237473
-0.0259097
-0.0427862
0.0191919
-0.158053
0.0162155
-0.0697001
-0.0838184
-0.0218414
-0.0802925
-0.0852274
-0.0723057
-0.0458554
-0.0460211
-0.0281091
-0.0138462
-0.0106971
-0.0929945
-0.100397
-0.138509
-0.111896
-0.15736
-0.185231
-0.216258
-0.256718
-0.0663089
-0.0724873
-0.0756645
-0.0670331
-0.0157326
0.00398339
-0.0100904
-0.0119398
-0.0241734
-0.0567905
-0.0928336
-0.103647
-0.0846884
-0.015429
-0.0943427
-0.0462626
-0.0767769
-0.0781629
-0.094452
-0.0487026
0.0960945
0.0668175
-0.0807158
-0.0858907
-0.127615
-0.0966605
-0.147242
-0.178741
-0.215529
-0.256281
-0.30254
-0.082454
-0.086651
-0.0872671
-0.0800842
-0.00853053
0.029422
0.00992661
0.0132273
-0.0989576
-0.0381492
-0.0735889
-0.0638592
-0.0630649
0.0545791
-0.138817
-0.208919
-0.0525783
-0.0850015
-0.0603553
-0.0900497
0.0604701
0.0675244
-0.0632572
-0.0654671
-0.111541
-0.076629
-0.130939
-0.169758
-0.206443
-0.249012
-0.298293
-0.349475
-0.104212
-0.0950625
-0.0918139
-0.116297
0.0209796
0.101315
-0.0172951
-0.1132
-0.0906354
-0.0616294
-0.175193
-0.129471
-0.231201
0.0634891
-0.197083
0.0101103
1.0781
-0.0565098
-0.0102311
-0.337547
-0.0964535
-0.0535634
-0.0290379
-0.0861961
-0.0442614
-0.108786
-0.152927
-0.196
-0.237282
-0.285751
-0.333296
-0.370259
-0.382931
-0.113541
-0.116812
-0.108189
-0.134078
-0.130487
0.0198082
0.100884
-0.0553829
-0.107447
-0.0841849
-0.0650463
-0.22231
-0.0283568
-0.0483632
0.402678
0.0501056
1.08398
1.12373
1.13625
1.02864
1.02889
0.970471
-0.661612
-0.249108
-0.148085
-0.112452
0.0147478
-0.0463628
-0.0386889
-0.0805014
-0.131937
-0.177986
-0.37102
-0.22602
-0.271858
-0.322292
-0.394426
-0.400667
-0.411463
-0.386412
-0.136891
-0.136418
-0.153369
-0.148406
-0.125051
-0.0256064
-0.0109038
-0.0909355
-0.103894
0.335395
0.118135
1.01261
-0.10503
1.19985
1.16358
1.16966
1.07776
1.19669
1.21866
-0.314681
-0.362252
-0.329311
0.9467
0.922028
0.993082
0.909677
1.01659
0.109459
0.16471
0.161048
0.0235267
-0.0273107
-0.399074
-0.104619
-0.108894
-0.15506
-0.20472
-0.359974
-0.260825
-0.310775
-0.437626
-0.418963
-0.424613
-0.437528
-0.427212
-0.43785
-0.166473
-0.159402
-0.174267
-0.165225
-0.142001
-0.122685
-0.0966672
-0.153447
-0.104095
0.778532
0.616176
1.24481
1.23208
1.1562
1.27705
1.30566
-0.247267
-0.192376
-0.194858
-0.484398
-0.319384
0.827184
0.812189
0.842596
0.942119
1.08286
-0.0892784
0.446093
0.435976
0.032441
-0.0787533
-0.394237
-0.420828
-0.114461
-0.130841
-0.17366
-0.234246
-0.354229
-0.302685
-0.472937
-0.450987
-0.48404
-0.474523
-0.518012
-0.597326
-0.197888
-0.185692
-0.120148
-0.203095
-0.178613
-0.158253
-0.138449
-0.22342
-0.108681
-0.0777675
-0.104787
-0.263067
1.20501
1.32595
1.32303
1.23146
1.37111
1.40717
-0.797739
-0.0184062
0.188031
-0.0812735
-0.0973097
0.629683
0.410358
-0.313555
-0.168625
0.716419
0.842827
0.987743
1.16511
-0.155408
0.0241065
0.132291
-0.0272194
-0.101531
-0.400913
-0.445752
-0.128733
-0.143974
-0.191625
-0.269361
-0.354366
-0.528246
-0.49132
-0.552802
-0.553398
-0.655028
-0.867353
-0.23193
-0.244756
-0.216
-0.123044
-0.134631
-0.174446
-0.193956
-0.150518
-0.245259
-0.215769
-0.521859
-0.250484
-0.239583
-0.0475155
1.25015
1.23362
1.16546
1.42902
1.42568
1.32473
1.48585
1.5393
-0.632104
-1.19518
0.0453954
0.200369
0.0721822
0.402825
0.584351
-0.0990816
0.013354
0.711799
0.870669
1.07812
1.27826
-0.257029
-0.225484
-0.22922
-0.0574383
-0.0468297
-0.101253
-0.414255
-0.477017
-0.136442
-0.160589
-0.225609
-0.323218
-0.539797
-0.597541
-0.643684
-0.666866
-0.86942
-1.1715
-1.45093
-0.269869
-0.282447
-0.145786
-0.140717
-0.165223
-0.185306
-0.209496
-0.281826
-0.242536
-0.202731
-0.0787208
0.366413
1.32561
1.30229
1.23978
1.07002
1.16184
1.54986
1.55076
1.43837
1.59976
1.63096
-0.393885
-0.997894
-1.71259
0.55074
0.253635
0.353304
0.12982
0.184899
0.731271
0.9675
1.22459
1.41147
0.302632
-0.185548
-0.252049
-0.261176
-0.101025
-0.0211782
-0.0519366
-0.394002
-0.477848
-0.198445
-0.13512
-0.285657
-0.567941
-0.663811
-0.756076
-0.829777
-1.09976
-1.38818
-1.76777
-2.05777
-0.315344
-0.320798
-0.120823
-0.147889
-0.166044
-0.187211
-0.223593
-0.317976
-0.283343
-0.244871
-0.0486628
0.0239538
1.43185
0.967913
1.34162
1.27478
1.14732
1.67644
1.68075
1.56808
1.72245
1.73618
1.70149
-0.110388
-2.17658
-0.69568
-1.36901
0.337203
0.548054
0.369714
0.825018
1.15495
1.38501
1.56221
0.0282381
-0.113625
-0.173766
-0.141444
-0.0748976
0.0940083
0.034888
-0.481324
-0.371475
-0.264236
-0.1824
-0.601587
-0.736718
-1.0026
-0.872847
-1.30746
-1.96689
-1.62626
-2.26194
-2.4996
-0.359582
-0.356528
-0.355729
-0.134693
-0.155797
-0.195307
-0.246858
-0.321024
-0.282291
-0.0871858
-0.0732856
1.5551
1.43172
0.823067
0.955793
1.33532
1.21934
1.04425
1.79477
1.78982
1.70888
1.84584
1.84018
1.81661
0.159258
-2.72868
-0.336185
-1.78263
-0.950514
0.495335
0.658589
0.394391
1.02792
1.33454
1.55788
1.73
0.0200613
-0.0201793
-0.0981121
-0.101826
0.0297785
0.178757
-0.00184941
-0.511124
-0.358578
-0.268539
-0.680227
-0.835972
-1.16718
-1.00308
-1.55539
-1.96328
-2.32565
-2.73469
-3.09665
-0.400917
-0.393533
-0.396052
-0.364773
-0.142045
-0.163164
-0.218354
-0.281005
-0.323134
-0.0767664
-0.0420887
1.67768
1.58286
1.51705
1.41453
0.634641
0.815284
0.926375
1.29239
1.15707
1.00558
0.422137
1.88452
1.87225
1.79087
1.85982
1.95484
1.91877
1.95464
0.0572584
-2.27486
-0.508126
-1.31438
0.657108
0.862866
0.429404
1.91286
1.22045
1.53122
1.75981
0.0456052
-0.041739
-0.0818241
-0.05196
-0.163495
0.0330276
0.0559812
-0.533424
-0.345405
-0.895959
-0.758072
-1.31816
-1.66335
-1.15495
-2.21124
-2.84224
-3.36267
-0.416238
-0.449815
-0.444698
-0.415482
-0.373136
-0.15681
-0.182074
-0.254309
-0.324348
-0.0770745
-0.0296279
-0.39656
-0.339536
1.69513
1.61901
1.50278
1.37954
0.64336
0.81134
0.945348
1.23293
1.08882
0.45632
0.208058
0.00841281
-0.159878
-0.274336
1.91063
1.94409
1.8787
1.80037
2.09567
2.00664
2.0367
2.00002
-0.035533
-1.73921
-0.792482
1.04825
0.783984
0.642233
0.382519
2.20316
1.98363
1.44655
1.78031
0.0311393
-0.110528
0.0176852
0.498297
-0.351039
-0.0489743
-0.724595
-0.493327
-1.56036
-1.15064
-1.92886
-2.78839
-3.50371
-0.464239
-0.49055
-0.47409
-0.433734
-0.378895
-0.177078
-0.220503
-0.303532
-0.0573781
-0.0712857
-0.333958
-0.440403
-0.371056
1.71402
1.60605
1.47784
1.32227
0.661644
0.834361
1.00267
1.15676
0.497028
0.254704
0.33402
-0.330815
0.0552598
-0.244358
-0.113865
1.89919
1.96486
1.81806
2.03615
2.25047
2.12705
2.08114
2.38175
-0.247172
-1.13999
1.28125
1.1573
1.02124
0.999797
0.319989
2.07151
2.34366
1.78103
0.219211
0.148275
0.901545
0.566265
-0.250991
-0.390949
-0.876894
-0.56479
-1.67065
-2.56243
-3.49799
-0.519114
-0.532601
-0.505445
-0.451504
-0.368867
-0.228856
-0.280344
-0.0935645
-0.106779
-0.410992
-0.520167
1.83132
1.71873
1.58641
1.42846
1.23827
0.691686
0.884508
1.06007
0.535103
0.378806
0.189315
-0.416088
-0.367244
0.0385706
-0.278014
-0.137347
1.92416
2.00411
1.9448
2.12186
2.55422
2.39933
2.23111
2.531
1.94681
-0.483638
1.71689
1.59076
1.43882
0.940374
0.234394
2.36227
2.20646
2.52618
0.198203
0.636234
2.1609
0.458422
0.47675
-1.23372
-0.768378
-2.15784
-3.33658
-0.587037
-0.581672
-0.54469
-0.46229
-0.298016
-0.362457
-0.155467
-0.149056
-0.5219
-0.627595
1.83643
1.71222
1.55027
1.33481
1.13104
0.739073
0.935409
0.573941
0.38212
0.187863
-0.503532
-0.441169
0.000181824
-0.334173
-0.183027
2.08372
2.02866
2.283
2.93889
2.71638
2.73413
2.55353
2.00288
1.88097
1.55933
0.983576
2.28392
2.72096
3.03324
0.121133
0.84958
-0.129419
-0.197966
-1.67403
-0.96289
-2.987
-0.655661
-0.645764
-0.590367
-0.29548
-0.454064
-0.346296
-0.648114
-0.720347
1.69418
1.84747
1.45837
1.20399
0.998478
0.783466
0.603265
0.395148
0.171183
-0.626281
-0.554693
-0.0555784
-0.43218
-0.262179
2.13771
2.2339
2.52645
3.24885
2.98232
2.83347
3.49522
2.04461
2.12935
1.73265
2.66903
3.11727
3.54218
-0.208062
0.0814409
0.121553
-0.195074
-2.39536
-1.35316
-0.746103
-0.717164
-0.486968
-0.603251
-0.620936
-0.760499
-0.842785
1.63028
1.82897
1.32165
1.07375
0.837269
0.638466
0.401873
0.141175
-0.753681
-0.684982
-0.120187
-0.550508
-0.357198
2.25315
2.42307
2.80927
3.51109
3.17325
3.92375
2.02948
2.44915
3.13027
3.71756
4.23677
-32.1607
-0.23957
0.284711
0.336578
-0.404052
-31.4205
-0.852499
-0.764752
-0.888814
-1.00582
-0.709518
-0.912065
-0.993451
1.75138
1.51222
1.19663
0.910265
0.689374
0.412342
0.105997
-0.924137
-0.853498
-0.198338
-0.699555
-0.47488
2.65416
2.34253
3.29012
3.97102
4.59889
2.52073
2.0756
-34.2407
-32.1609
-0.147933
0.14968
0.193711
-29.3899
-31.295
-31.6573
-0.989139
-1.04
-1.17252
-1.19754
-0.824947
-1.11764
-1.19048
1.7165
1.41366
1.03307
0.779225
0.429881
0.0515604
-1.17492
-1.09397
-0.311432
-0.638499
-0.905911
3.09204
3.90918
4.73341
2.93842
2.51726
2.07909
-35.2223
-34.3098
-32.1617
-0.503849
-28.7991
-31.0353
-33.8524
-30.8685
-1.32368
-1.49511
-1.54135
-1.34412
-1.42999
-1.46558
1.6413
1.24318
0.941249
0.469993
-0.00763835
-1.5671
-1.43721
-0.449037
-0.843126
-1.17664
3.75832
4.71495
2.8515
3.50993
2.52584
2.06902
-36.0577
-35.3691
-34.3434
-32.1457
-34.9171
-27.3715
-28.5574
-30.7825
-33.9882
-30.6567
-1.76586
-1.98077
-2.32044
-1.92788
-1.76928
-1.93921
1.51357
1.01725
0.454105
-0.102854
-2.15648
-1.86645
-0.628279
-1.10134
-1.51615
4.54758
3.21387
4.20035
2.7677
2.2023
-36.0678
-35.4938
-34.3597
-32.1253
-33.7243
-35.1576
-27.5158
-27.3729
-28.4289
-30.5553
-33.9021
-30.642
-2.305
-2.89574
-2.43826
-2.56372
-2.69993
1.60736
1.005
0.377123
-0.25849
-2.53294
-2.25135
-0.8626
-1.40881
-1.88467
3.7243
3.13596
2.45528
-38.6469
-35.9427
-35.5803
-34.3696
-32.1023
-33.7931
-35.3205
-25.4046
-27.5541
-27.3421
-28.3368
-30.3481
-33.777
-30.5619
-3.21645
-3.3647
-3.41148
-3.36271
1.74572
1.00949
0.259374
-0.472776
-3.1324
-2.76602
-1.15604
-1.77312
-2.31525
-41.4813
-38.7539
-35.8263
-35.6417
-34.381
-32.0796
-33.9287
-35.48
-24.9739
-25.4235
-27.5839
-27.2939
-28.2646
-30.163
-33.6331
-30.3938
-46.1744
-41.6711
-38.8263
-35.7394
-35.6868
-34.3949
-32.0566
-34.0428
-35.6522
-20.9992
-25.1543
-25.4386
-27.5874
-27.2671
-28.1928
-30.044
-33.4851
-30.1921
-48.8746
-46.0092
-41.7769
-38.8866
-35.6811
-35.7221
-34.4112
-34.1287
-35.8414
-25.331
-20.8015
-25.287
-25.4379
-27.5719
-27.2563
-28.1161
-33.3656
-94.0849
-48.4131
-45.9736
-41.8507
-38.9159
-35.643
-35.7448
-34.1788
-36.0158
-20.0814
-26.112
-20.8103
-25.3514
-25.4363
-27.5472
-27.2622
-33.3123
-30.7268
-103.37
-47.2699
-46.0217
-41.906
-38.9213
-35.6237
-34.1796
-21.6754
-20.2009
-26.9367
-20.8395
-25.3761
-25.4369
-27.5222
-27.2691
-44.7722
-31.142
-112.307
-46.0135
-46.0928
-41.9339
-38.9104
-34.149
-20.9367
-21.7421
-20.2702
-27.7228
-20.8744
-25.3782
-25.4436
-27.5126
27.2908
-52.3651
-30.8407
-120.37
-44.7433
-46.1551
-41.939
-38.886
-20.8893
-20.8941
-21.8203
-20.3415
-28.4515
-20.919
-25.3719
-25.4516
34.8872
30.3891
-60.8376
-30.3267
-127.467
-43.4578
-46.1516
-41.921
-20.4705
-20.8337
-20.8538
-21.8754
-20.4273
-29.1576
-20.9479
-25.3809
47.2571
35.9771
33.5056
-68.6887
-29.6887
-134.163
-42.279
-46.0793
-20.4774
-20.4017
-20.7791
-20.8198
-21.9137
-20.5241
-29.8407
-20.9376
49.9571
48.1204
37.1013
35.8244
-75.8267
-28.891
-141.175
-41.4785
-20.9043
-20.4061
-20.3285
-20.7261
-20.7941
-21.9418
-20.6187
-30.2664
49.8849
50.5087
49.0255
38.0297
37.7671
-82.8302
-28.1518
-146.459
-20.9524
-20.8463
-20.3312
-20.2606
-20.6761
-20.7748
-21.9635
-20.6874
47.4719
50.4771
51.1211
49.7561
38.9242
39.5752
-90.6196
-28.0437
-21.6906
-20.9071
-20.7903
-20.2623
-20.2006
-20.631
-20.7592
-21.978
34.5043
48.1979
51.0676
51.6766
50.3447
39.8865
41.3627
-97.2227
-20.0365
-21.7617
-20.8658
-20.7356
-20.2014
-20.1487
-20.5959
-20.7477
27.0181
35.5486
49.0566
51.6052
52.1622
50.8339
40.9025
42.6138
-25.3291
-20.1212
-21.8408
-20.8312
-20.6836
-20.1488
-20.1103
-20.5788
-43.6999
29.9411
36.6482
49.7608
52.0787
52.59
51.213
41.5721
-20.9958
-26.1648
-20.1841
-21.8974
-20.8054
-20.6364
-20.1097
-20.0925
-29.8527
-51.3059
32.8543
37.5396
50.3301
52.4973
52.9457
51.4312
-24.8869
-20.789
-27.0014
-20.2515
-21.9377
-20.7863
-20.5994
-20.0915
-94.0939
-30.3239
-59.656
34.9504
38.3898
50.7946
52.8445
53.1471
-25.3643
-25.0676
-20.7905
-27.787
-20.3321
-21.9685
-20.7706
-20.5815
-49.0278
-103.797
-29.8939
-67.3199
36.6985
39.3249
51.1622
53.0408
-27.5206
-25.389
-25.1953
-20.8174
-28.5136
-20.4216
-21.9927
-20.7591
-45.7823
-48.5019
-112.852
-29.1977
-74.2475
38.3692
40.2815
51.3729
-27.2574
-27.546
-25.4045
-25.2543
-20.8525
-29.2165
-20.5112
-22.0085
-41.6612
-45.6417
-47.3039
-120.999
-28.3847
-81.0742
39.989
40.8819
-30.5871
-34.3103
-27.2648
-27.5755
-25.4054
-25.2755
-20.8964
-29.8863
-20.5735
-38.3515
-41.83
-45.6351
-46.0413
-128.199
-27.4509
-88.5959
41.2303
-28.2289
-30.5199
-34.3407
-27.2335
-27.581
-25.4053
-25.272
-20.9235
-30.2994
-33.9225
-38.4746
-41.9253
-45.7051
-44.7709
-134.984
-26.6184
-94.984
-34.6805
-31.0223
-27.9107
-30.5908
-34.2711
-27.185
-27.567
-25.4076
-25.2643
-20.9128
-33.8205
-38.5566
-41.9994
-45.7964
-43.4953
-142.1
-26.4819
-35.0385
-35.859
-31.8102
-30.8227
-27.7926
-30.5463
-34.189
-27.1583
-27.5437
-25.4144
-25.2713
-35.2974
-34.1271
-33.939
-38.6223
-42.0549
-45.8729
-42.3101
-147.467
-35.2165
-35.9064
-31.7641
-30.5506
-27.6921
-30.4147
-34.0801
-27.1515
-27.5203
-25.4233
-35.3822
-34.2029
-34.0658
-38.6563
-42.0893
-45.8776
-41.5522
-35.363
-35.7989
-31.7298
-30.3097
-27.6174
-30.2267
-33.9624
-27.1557
-27.5106
-35.5
-34.2109
-34.162
-38.6682
-42.1004
-45.8087
-35.5195
-35.6823
-31.7015
-30.0963
-27.5687
-30.0187
-33.8711
-27.1616
-35.5904
-34.2185
-34.2185
-38.6593
-42.0863
-35.6928
-35.5932
-31.6738
-29.8986
-27.5181
-33.8362
-35.6549
-34.2255
-34.2257
-38.6368
-35.8545
-35.5347
-31.6447
-29.7281
-27.4523
-35.7022
-34.2366
-34.1966
-35.4977
-31.611
-29.6173
-35.7393
-34.2522
-35.479
-31.5877
-35.7643
-34.2689
-3.24512
-3.62976
-3.68175
-4.19538
-4.17315
-4.74229
-3.17458
-3.64113
-2.71811
-3.96084
-4.02775
-4.58077
-4.66992
-5.33339
-5.33492
-6.00211
-8.06279
-8.83014
-8.89181
-9.80711
-9.629
-5.98228
-6.65935
-4.71082
-5.32966
-3.55931
-4.09164
-2.6055
-3.0167
-2.13419
-10.5593
-10.1932
-4.15191
-4.33871
-4.93466
-5.04199
-5.65417
-5.87009
-6.63395
-6.65992
-7.42493
-7.36647
-8.07738
-8.8267
-9.61127
-9.6011
-10.441
-10.6219
-11.6238
-11.5179
-6.60355
-7.31903
-7.28646
-8.07629
-8.00807
-8.7968
-9.28436
-5.21481
-5.84578
-3.91245
-4.47438
-2.83488
-3.26589
-1.94123
-2.27223
-1.46051
-8.66653
-9.06787
-12.487
-13.4075
-10.1283
-10.9174
-11.8828
-4.23588
-4.46997
-5.09276
-5.33369
-6.03192
-6.14154
-6.88382
-7.18157
-8.00958
-8.09253
-8.88798
-9.65958
-10.5005
-10.4567
-11.2956
-11.2503
-12.2175
-12.3844
-13.0861
-13.4104
-14.5088
-14.0185
-14.8915
-5.6873
-6.47164
-6.57908
-7.25712
-7.45027
-4.2681
-4.88906
-3.01119
-3.50605
-2.01499
-2.36141
-0.702769
-1.18455
-1.44882
-7.11977
-7.89165
-7.63985
-8.79023
-10.1567
-14.4677
-12.5275
-13.9181
-11.3881
-12.5553
-4.14829
-4.49677
-5.1613
-5.45531
-6.17901
-6.47809
-7.20839
-7.41121
-8.22338
-8.49647
-9.17838
-9.66137
-11.2039
-10.8264
-12.2281
-12.2427
-13.31
-13.2354
-13.8718
-14.6579
-15.1213
-15.1812
-16.0952
-15.8088
-15.6503
-16.212
-16.3389
-17.535
-4.90425
-5.72689
-5.32937
-6.04351
0.142333
-0.339926
-3.3503
-4.083
-2.02801
-2.50803
-0.515804
-1.0854
-1.35595
1.03109
0.585469
-5.66676
-6.45755
-6.31126
-18.6725
-17.6041
-19.307
-7.66407
-8.97235
-10.2669
-11.4445
-13.7279
-14.8604
-16.5313
-15.871
-12.6979
-13.7838
-3.91223
-4.33689
-5.05577
-5.45692
-6.2155
-6.55363
-7.31434
-7.63685
-8.7338
-8.40613
-9.6148
-9.81139
-10.7125
-11.272
-12.8865
-12.3659
-13.8309
-13.9479
-14.6315
-15.2083
-15.0767
-20.6335
-21.0435
-19.7891
-16.1815
-15.9515
-16.9397
-16.8995
-17.2554
-18.0615
-17.6494
-19.781
-19.0373
-29.4174
-30.1365
-29.7964
-32.4019
-31.2302
-30.7654
-30.9952
-30.6788
-3.67655
-4.26107
-3.71766
-4.40392
0.510743
-0.0596538
-2.11629
-2.69109
-0.253423
-0.940888
-1.26673
1.92351
1.54969
1.57434
1.06401
-3.94601
-4.83181
-7.66701
-4.4907
-6.01428
-29.1127
-27.5409
-23.5051
-22.7475
-21.3691
-16.985
-18.3778
-19.1462
-20.5973
-7.88536
-8.98664
-8.83939
-10.371
-11.7033
-13.0069
-14.3086
-15.1303
-16.5029
-29.8191
-30.7811
-32.3322
-30.6939
-32.1288
-33.7901
-32.6393
-31.7947
-33.0574
-32.8793
-3.38844
-4.00652
-4.81705
-5.31523
-6.13864
-6.56655
-7.48037
-7.76962
-8.56976
-8.8478
-10.2388
-9.76948
-11.092
-11.2495
-12.263
-12.8363
-12.8748
-14.2131
-13.8036
-14.9753
-15.6828
-15.6309
-16.6542
-16.7342
-16.37
-21.9893
-22.9076
-25.0268
-24.1639
-21.6479
-20.7345
-17.6765
-17.7563
-18.3615
-18.6286
-20.6005
-19.4098
-19.0862
-25.6181
-27.6004
-27.1666
-27.7154
-27.0945
-29.1817
-29.4247
-30.0074
-32.0805
-31.1055
-31.5449
-31.2635
-31.6518
-31.7627
-32.3043
-31.9943
-31.5391
-31.6603
-2.04623
-2.5555
-1.8411
-2.5404
1.01003
0.317714
0.147318
-0.661504
-0.967072
2.76472
2.45259
2.58175
2.15472
2.24406
1.69509
-1.70257
-2.32852
-3.64548
-3.97609
-5.50846
-6.4039
-2.94096
-24.7503
-27.1936
-26.1128
-29.9357
-28.6112
-24.0379
-25.2234
-23.4108
-21.4477
-6.46768
-21.1919
-17.4102
-19.7806
-18.7421
-7.54747
-8.52426
-10.0698
-10.5596
-12.1244
-12.5728
-14.3571
-15.3479
-17.1005
-30.0295
-30.8997
-29.8938
-32.8766
-32.5956
-34.1705
-32.3529
-32.2085
-31.4061
-31.9424
-33.1757
-32.8703
-2.72573
-3.36984
-2.13785
-2.19539
-4.32748
-5.03572
-6.00485
-6.48478
-7.4954
-8.02846
-9.11371
-9.23184
-10.5246
-11.3714
-10.2518
-12.0103
-12.6113
-13.563
-14.0838
-14.8982
-13.5534
-14.0912
-15.5844
-15.6221
-15.6473
-16.4631
-16.3384
-16.4362
-16.4214
-17.1679
-17.2783
-17.9827
-18.3474
-22.5812
-23.568
-24.6447
-24.0203
-22.2571
-21.5687
-19.3119
-19.6169
-21.3984
-20.4241
-20.3358
-25.4583
-25.1058
-25.5128
-28.2884
-27.1454
-29.0008
-28.7758
-30.4637
-27.5595
-30.0244
-30.2921
-31.732
-31.3444
-30.9966
-32.2427
-30.3121
-31.4078
-0.444458
-0.248702
-0.65268
0.0285236
1.68528
0.927231
0.735937
0.289734
3.58236
3.34695
3.6037
3.24962
3.45462
2.96526
3.0765
2.41763
4.30773
4.16579
4.89185
4.9147
5.47963
5.33384
1.08751
-0.512204
-1.29627
-1.33782
-5.18756
-3.44418
-1.57055
-0.791655
-28.6181
-28.1948
-26.5839
-22.4406
-25.6986
-24.2356
-4.90139
-6.65087
-8.42396
-22.7346
-18.5886
-21.1643
-19.9416
-10.176
-11.2336
-12.7494
-13.2516
-14.8719
-15.4195
-17.4212
-28.9558
-32.6818
-33.309
-32.1848
-31.2119
-34.2026
-35.2121
-34.3791
-35.1925
-33.0226
-33.0062
-33.5835
-34.3228
-33.9376
-1.31271
-1.82417
-4.31536
-4.36966
-3.12913
-3.72918
-5.68912
-6.2463
-8.04766
-8.09337
-9.19061
-9.66576
-11.2701
-11.2221
-12.1076
-12.6954
-13.6612
-13.9832
-14.9073
-14.7496
-15.5
-16.1024
-17.0245
-16.6797
-17.3037
-16.9662
-17.6789
-17.7142
-17.9425
-17.8729
-18.6598
-19.0001
-19.6475
-20.024
-24.1687
-22.914
-23.7961
-23.2241
-22.2192
-20.6227
-21.6083
-21.042
-21.4538
-26.3345
-24.8985
-27.4012
-25.8805
-27.8955
-28.1146
-27.4115
-31.0252
-28.8598
-32.9075
-31.0279
5.53864
5.80876
0.938921
1.1435
2.44001
1.69004
1.82247
2.12676
2.42317
4.50838
4.21133
4.51564
4.1258
4.39818
3.88206
4.12934
3.4586
5.35354
5.21126
6.02197
6.03296
6.63203
6.44332
2.96342
2.53658
2.46809
0.684343
-3.09579
-1.52732
0.148175
1.3959
-24.7223
-26.7392
-27.9301
-3.1743
-5.20602
-7.07077
-9.12237
-10.984
-22.5914
-24.4224
-18.8673
-21.6969
-13.008
-14.2182
-16.3997
-16.8138
-19.0522
-28.8125
-31.0346
-30.5997
-33.7364
-31.2432
-32.83
-34.633
-34.634
-35.352
-33.4094
-34.4579
-34.6939
-35.101
-33.9226
-1.1183
-3.10706
-2.28257
-1.92855
-2.37057
-4.07287
-4.97169
-5.3533
-4.07537
-5.21383
-7.9137
-8.15598
-9.57272
-9.0467
-11.9352
-12.1798
-14.3217
-13.2922
-13.2717
-14.0632
-14.2787
-15.3027
-15.6115
-16.3175
-16.7345
-17.7492
-18.3061
-18.2087
-17.9837
-18.5692
-18.6849
-18.2513
-19.5199
-19.4315
-19.4524
-19.9138
-21.3375
-24.7063
-24.2757
-23.2628
-22.0763
-21.5008
-22.9157
-22.5884
-22.0516
-25.5386
-25.4108
-27.3636
-26.4992
-27.6452
-27.7668
-27.8838
-27.582
5.54601
5.92717
6.58899
6.93022
3.64195
3.01928
3.33215
4.38204
4.28387
5.6718
5.39434
5.84882
5.26856
5.54027
4.88507
4.99275
6.48959
6.59663
7.33998
7.29566
8.01682
7.68693
6.15553
4.91599
4.23759
3.41204
4.65524
7.65304
-1.37943
0.282219
2.42148
4.09834
-1.22573
-28.5557
-26.4167
-2.96845
-5.25843
-7.44223
-9.76887
-12.8416
-14.9458
-14.4496
-21.3291
-25.9663
-23.6184
-17.803
-18.3743
-20.9809
-31.9805
-29.9542
-35.0322
-33.5783
-35.6336
-35.6663
-36.1403
-35.2608
-35.3752
-34.0488
-2.96212
-2.40506
-2.71717
-3.80257
-3.92587
-3.3021
-4.04257
-5.79552
-6.84154
-8.02701
-6.4038
-8.10578
-8.09369
-8.95376
-12.9766
-12.216
-13.7254
-13.8917
-16.7799
-15.0192
-14.8972
-14.174
-16.1545
-17.6016
-17.1327
-18.3567
-18.546
-18.3322
-19.1657
-18.3605
-19.501
-20.0018
-20.0558
-18.8724
-20.6493
-20.0526
-20.5535
-21.728
-22.7596
-25.7708
-25.0403
-21.8366
-21.9585
-22.8668
-22.4153
-25.9947
-25.8124
-27.0511
-26.227
-27.5472
-26.9706
-3.52494
-3.58834
5.33698
5.84536
6.47937
6.94265
7.66378
8.21516
5.93669
5.79174
6.73563
7.81329
8.42269
7.10372
6.82592
7.31709
6.60149
6.98206
8.08854
8.08845
8.91676
8.82794
9.67018
9.11296
9.63668
7.6811
6.26809
6.63227
10.3764
9.55556
1.01743
2.955
5.67319
7.28189
1.34246
-0.672162
-2.80564
-32.4298
-28.7017
-5.76866
-8.80943
-12.1701
-14.4245
-18.3604
-19.7895
-23.5398
-27.3413
-30.3865
-25.0979
-37.612
-35.116
-38.4316
-38.7241
-39.1213
-37.9514
-38.9963
-38.1505
-4.27637
-4.01019
-5.15731
-5.22585
-6.07587
-5.42199
-6.28724
-7.71733
-8.6047
-9.70897
-8.4433
-9.70279
-13.7131
-11.0131
-12.1946
-13.1298
-14.118
-14.0927
-15.2802
-17.5615
-16.0606
-17.4375
-15.8988
-18.7114
-18.0484
-20.3103
-18.75
-19.6382
-18.949
-19.1241
-19.0119
-20.0045
-20.396
-20.3489
-20.5154
-20.1571
-21.3193
-21.1484
-21.8482
-22.1375
-23.383
-22.3041
-24.3934
-23.4757
-23.6316
-25.208
-24.9415
-25.5714
-25.0498
-3.97006
-4.1437
-4.96341
-4.97802
4.89107
5.49143
6.07472
6.64272
7.29595
7.96295
9.50864
8.81023
4.26662
4.88398
10.5917
10.2081
8.37161
8.90337
8.89795
8.5662
9.14967
10.0817
9.89401
10.8808
10.6275
11.2732
10.4374
12.0952
12.5904
13.4408
12.5768
9.34938
10.382
6.27957
4.27515
10.6629
9.09137
5.24611
2.71509
-1.24684
3.59534
-4.1733
-6.89032
-37.5713
-33.8668
-11.2017
-15.7019
-22.5585
-24.4012
-33.5536
-38.4801
-32.8065
-39.9271
-40.0486
-41.5766
-41.0214
-42.2994
-40.986
-5.83032
-6.27351
-6.94004
-7.10002
-8.14655
-7.57067
-9.01223
-9.86125
-10.8735
-11.9157
-10.8854
-11.921
-14.8386
-13.8811
-13.1846
-14.1659
-17.768
-14.9692
-15.3114
-16.9446
-16.4432
-18.2049
-17.512
-17.808
-17.834
-19.3101
-18.808
-19.9192
-20.1044
-19.7023
-19.7766
-19.4916
-19.4559
-20.4412
-20.6102
-20.6776
-21.014
-20.4431
-20.6852
-20.2821
-21.8147
-21.3273
-23.5977
-22.4416
-24.7817
-23.5263
-21.8613
-25.0627
-24.5621
-4.25692
-4.48793
-5.19068
-5.41243
-6.18011
-6.39037
5.38572
6.07016
6.62479
7.36395
10.8192
9.01122
9.97634
8.13393
3.53245
4.12769
4.52501
5.22391
2.72008
3.31082
1.85997
2.43009
12.5957
11.2463
10.8661
11.8509
11.1171
11.9151
12.3872
12.0622
13.2512
12.4732
12.7795
12.0869
11.9022
14.0725
15.0206
15.2624
16.5419
15.9667
13.741
13.0865
10.0371
8.11656
14.4175
13.0866
8.9078
6.51265
-0.349408
-5.24196
6.45026
2.57605
-8.62526
-14.0316
-45.3827
-42.8013
-23.2494
-31.7285
-40.8434
-46.2268
-39.7548
-46.3902
-44.3264
-46.4218
-46.074
-7.35093
-8.14338
-10.2962
-10.3693
-9.39562
-9.40687
-11.1457
-12.1633
-13.0782
-13.9282
-13.4555
-14.1663
-16.0159
-15.0039
-14.7012
-15.2918
-18.0248
-17.8704
-16.9288
-18.3723
-16.9263
-17.4168
-18.6632
-18.9669
-18.2198
-19.4499
-19.4333
-20.673
-20.2633
-20.2608
-20.1876
-20.1314
-20.7562
-20.7182
-20.5463
-20.7294
-20.6226
-20.4002
-21.1861
-20.5724
-21.2648
-23.6304
-21.4523
-21.7747
-25.1508
-21.6836
-7.76042
-4.21428
-4.5101
-5.23214
-5.57718
-6.32694
-6.63649
-7.32751
-4.18877
-4.4758
-3.99115
-4.35326
-3.66295
-4.06684
0.999022
1.49214
0.142118
0.564417
-0.693792
-0.320233
-1.44548
-1.1675
-3.259
-3.7023
-2.72563
-3.19193
-2.12847
-1.92277
-2.60479
5.69236
6.54651
7.17842
8.1537
10.0917
11.0194
8.97829
3.60306
4.29657
4.67344
5.43409
2.59102
3.24975
1.52311
2.1277
10.8858
13.5838
14.997
13.7227
14.2229
13.8425
15.3951
14.7662
15.8235
14.9618
13.1415
13.3441
11.8685
16.4352
16.7984
17.1455
18.4876
18.3605
20.0833
20.0827
17.727
17.2757
14.3934
12.3282
18.9187
17.581
12.6336
9.78318
-10.57
-1.36803
-9.02126
8.35101
2.85185
-20.5385
-24.8481
-47.8457
-50.2377
-35.6414
-65.9552
-55.8802
-54.2266
-46.8714
-8.80616
-9.57455
-11.7077
-11.8962
-12.0014
-10.7196
-11.4631
-13.5257
-13.9988
-15.1054
-15.3907
-15.0089
-15.9801
-15.6784
-16.3754
-17.1842
-16.2446
-19.4187
-18.8704
-17.725
-18.0819
-18.8895
-18.5392
-19.5031
-19.4505
-20.3917
-20.4006
-20.567
-20.4644
-20.9421
-20.9285
-20.8456
-21.1549
-20.8819
-20.966
-20.9343
-20.6338
-21.0491
-20.6352
-20.4813
-24.7728
-20.7004
-9.10891
-7.58536
-8.39459
-5.12836
-5.53791
-6.25207
-6.64442
-7.31495
-4.90252
-5.30016
-4.61852
-5.06394
-4.20729
-4.68194
0.489915
1.00556
-0.482023
-0.0621524
-1.43888
-1.06269
-2.23634
-2.01474
-3.65967
-4.17254
-3.00659
-2.78961
-3.5515
5.86937
6.89492
7.45303
8.72924
9.54671
3.47634
4.25546
4.52056
5.42495
2.19402
2.91411
0.879885
1.54865
8.93733
11.2177
9.77474
17.2368
16.9894
16.442
18.2481
17.4576
18.0411
15.9723
14.3287
14.0964
12.2717
20.2374
18.9328
19.0958
21.9435
21.8786
23.9582
24.0599
22.1721
22.3201
19.1248
17.0893
24.1466
22.6385
17.4228
13.8314
-13.2539
-21.8269
-2.31554
-12.178
11.0411
3.29185
-29.0317
-30.7962
-40.6529
-88.0006
-80.2991
-10.0514
-10.6908
-11.6278
-12.7171
-13.4416
-13.2092
-13.2466
-12.6682
-16.0345
-16.6189
-17.2011
-17.2166
-16.4494
-17.7417
-17.0531
-17.8944
-18.2164
-18.5565
-18.2488
-18.0669
-19.7448
-19.4136
-18.8825
-19.0864
-19.7505
-19.4553
-20.1519
-20.4292
-20.6366
-20.6581
-21.1633
-20.998
-21.0315
-21.1513
-21.3846
-21.3436
-21.3908
-21.318
-19.9945
-21.5773
-20.8144
-30.1281
-9.04633
-9.89748
-7.73392
-8.62823
-5.97546
-6.44478
-7.29662
-5.77313
-6.28791
-5.31416
-5.89558
-4.68262
-5.26909
-0.25737
0.22312
-1.33355
-0.914587
-2.38947
-2.01889
-3.21993
-3.03685
-4.02568
-3.85257
-4.61236
5.77063
7.01173
7.64114
7.18922
3.00265
3.87726
4.05497
5.09782
1.49485
2.27834
0.00921918
0.793784
9.2866
7.83986
11.601
10.0792
17.459
17.4229
21.0636
20.3161
19.6538
18.7278
21.3905
21.0709
12.4149
16.8165
15.2382
14.1299
23.3721
23.2517
25.8026
25.5241
27.0454
27.9103
26.5124
28.0005
24.0214
22.3172
28.7484
27.5195
23.6447
19.7139
21.4942
-18.9643
-28.7836
13.9337
-6.13935
-17.8461
-32.5719
-28.7017
-13.8466
-10.2177
-11.0399
-11.7335
-12.7205
-13.5999
-15.9008
-14.4733
-15.3576
-17.6899
-17.2415
-18.7443
-18.8104
-17.2582
-18.573
-19.0887
-19.2024
-19.3573
-18.9376
-19.2444
-19.4967
-19.3922
-19.3497
-20.2187
-20.02
-19.7583
-19.8365
-20.1559
-21.0415
-20.5715
-20.7583
-21.0867
-21.1023
-21.2512
-21.2448
-21.0494
-21.1656
-21.846
-21.1456
-9.09975
-9.81858
-7.19992
-7.74152
-8.63998
-6.60006
-7.23975
-5.91553
-6.5732
-5.183
-5.85535
-1.20424
-0.725913
-2.43402
-1.9872
-3.54363
-3.2402
-4.37031
-4.2287
-5.05778
7.104
5.32715
6.21043
5.82624
2.31131
3.19644
4.16696
3.38142
0.711755
1.52822
-0.999657
-0.214891
9.06665
7.08269
5.74478
11.3898
9.63873
17.9137
20.6873
19.5911
20.4569
24.9454
23.5901
24.7846
22.6694
22.9451
14.954
12.4499
17.6613
16.3086
19.254
27.6073
27.1388
30.8483
33.3007
30.3946
31.1644
31.7609
32.4587
33.4297
28.7472
29.7138
29.8608
25.4776
27.0671
25.7085
21.251
-21.7822
-39.9733
-36.0731
-15.8438
-10.2824
-14.3938
-14.8895
-11.3081
-11.5962
-12.4474
-12.9849
-13.6765
-14.3172
-16.1851
-15.962
-17.5483
-17.2556
-19.7549
-19.7986
-18.7268
-18.9659
-20.194
-20.0083
-19.3663
-19.3418
-20.0048
-20.0885
-20.1299
-20.6582
-20.518
-20.3385
-20.5562
-20.9199
-20.7971
-21.0954
-21.0312
-20.9958
-20.972
-21.0146
-21.0534
-10.2834
-8.01033
-8.60274
-9.36356
-9.66745
-7.30792