/*--------------------------------*- C++ -*----------------------------------*\
  =========                 |
  \\      /  F ield         | OpenFOAM: The Open Source CFD Toolbox
   \\    /   O peration     | Website:  https://openfoam.org
    \\  /    A nd           | Version:  8
     \\/     M anipulation  |
\*---------------------------------------------------------------------------*/
FoamFile
{
    version     2.0;
    format      ascii;
    class       volScalarField;
    location    "3000";
    object      epsilon;
}
// * * * * * * * * * * * * * * * * * * * * * * * * * * * * * * * * * * * * * //

dimensions      [0 2 -3 0 0 0 0];

internalField   nonuniform List<scalar> 
4109
(
0.117447
0.131115
0.120837
0.129914
0.135545
0.131548
0.136733
0.120697
0.145285
0.14507
0.143159
0.147245
0.119921
0.134621
0.139704
0.150934
0.151625
0.150008
0.151989
0.141144
0.121852
0.130567
0.13173
0.158827
0.160151
0.165312
0.12003
0.133829
0.11853
0.160473
0.149187
0.143095
0.133002
0.131282
0.137942
0.163078
0.164096
0.176555
0.137198
0.119617
0.134419
0.13707
0.122402
0.166565
0.154522
0.552365
0.255179
0.14888
0.143821
0.13269
0.138997
0.170776
0.178451
0.192216
0.150551
0.137561
0.117327
0.135044
0.139387
0.147617
0.144054
0.676462
0.177315
0.163067
0.157187
0.221595
0.552453
0.151027
0.143484
0.143882
0.207829
0.184805
0.236317
0.22742
0.224585
0.155877
0.155597
0.143993
0.134722
0.144292
0.140625
0.143544
0.149292
0.15209
0.182437
0.249301
0.590767
0.800676
0.809989
0.188968
0.184678
0.169517
0.163118
0.157877
0.197332
0.42186
0.15129
0.144307
0.237085
0.220717
0.209838
0.242332
0.248356
0.245916
0.251896
0.165705
0.161286
0.155683
0.141215
0.154486
0.20787
0.147201
0.151788
0.154738
0.16133
0.819526
0.303268
0.40145
0.566775
0.895502
0.847259
0.251625
0.206332
0.194386
0.178849
0.172039
0.16567
0.157374
0.429084
0.167515
0.154808
0.241512
0.227104
0.260361
0.251883
0.27434
0.256568
0.172104
0.169806
0.169369
0.155097
0.160979
0.211143
0.152189
0.157548
0.162784
0.166811
0.798491
0.474397
0.916186
0.598835
0.925786
0.284573
0.214462
0.20367
0.186773
0.17915
0.172491
0.166056
0.159943
0.415076
0.153459
0.235695
0.221824
0.269644
0.248224
0.279166
0.283649
0.300085
0.182712
0.178223
0.177004
0.163931
0.169625
0.226591
0.15922
0.165603
0.168918
0.176766
0.556444
0.972886
0.579419
1.0095
0.984666
0.313528
0.197387
0.207055
0.188714
0.172258
0.180784
0.170828
0.473496
0.161007
0.219138
0.230588
0.263616
0.24429
0.278158
0.297222
0.296313
0.338056
0.190363
0.188163
0.189485
0.177754
0.171341
0.228557
0.16579
0.171663
0.177975
0.183812
0.602714
1.05393
1.07887
0.665645
1.09681
0.310508
0.198463
0.210152
0.184846
0.178405
0.496835
0.171573
0.221466
0.234392
0.257909
0.247681
0.273649
0.29623
0.311801
0.335234
0.375038
0.20244
0.196971
0.196604
0.189098
0.178954
0.241273
0.179824
0.172461
0.211962
0.185977
0.194914
0.591105
1.151
0.698665
1.1934
1.19337
0.328873
0.200874
0.208845
0.190318
0.547325
0.171192
0.224061
0.234164
0.26209
0.25034
0.277485
0.289834
0.315064
0.338442
0.362229
0.422392
0.213115
0.205304
0.202636
0.222026
0.18114
0.245417
0.184168
0.225184
0.203814
0.196864
1.2422
0.615598
1.2908
0.766211
1.3289
0.338823
3.64985
0.202938
0.215065
0.577113
0.178516
0.223621
0.237584
0.263058
0.249451
0.279758
0.293522
0.308307
0.33749
0.364643
0.402126
0.412959
0.47906
0.210091
0.219834
0.203513
0.234339
0.236736
0.186846
0.255203
0.199698
0.216297
0.207086
0.639695
1.36589
1.41539
0.770755
1.44503
0.353673
4.40738
3.87582
4.60697
3.18424
3.9592
2.78974
0.751775
0.187303
0.231467
0.238885
0.253835
0.25252
0.26754
0.280595
0.29401
0.311392
0.423991
0.327688
0.361238
0.397176
0.478459
0.541667
0.510046
0.617859
0.231728
0.225024
0.247544
0.251647
0.227122
0.19941
0.271789
0.207346
0.219421
0.698702
1.52087
1.5033
0.357039
9.80429
7.17486
4.72242
3.39321
4.36372
5.47821
0.724371
0.718618
0.810411
3.02079
2.61985
2.79068
2.54537
2.91515
1.38707
0.219004
0.305732
0.287314
0.27407
0.464694
0.284909
0.295614
0.311872
0.330418
0.42252
0.349641
0.387942
0.533201
0.479672
0.589861
0.576224
0.721148
0.806614
0.248663
0.251309
0.265023
0.264859
0.241316
0.231316
0.209935
0.269359
0.223009
0.789637
1.81167
10.1273
7.33936
3.60962
4.35717
5.52844
0.787731
0.840137
0.920337
0.843768
0.898342
2.13266
2.32175
2.24651
2.52334
2.99091
2.06896
1.18224
0.318523
0.32855
0.292159
0.454859
0.47188
0.310679
0.308337
0.329142
0.351503
0.414618
0.373177
0.542322
0.509188
0.595643
0.647278
0.729696
0.766512
0.276542
0.265319
0.232793
0.293498
0.281782
0.254491
0.245423
0.319437
0.236783
0.224544
0.330639
0.868021
9.84249
11.2001
7.49129
3.58597
4.45296
5.70717
0.830642
1.00247
1.18956
0.939053
1.02763
1.82949
1.47208
0.933203
1.00112
1.9927
2.18588
2.5446
2.95255
2.48332
2.13121
0.605338
0.345415
0.325257
0.44396
0.473825
0.32519
0.32834
0.349738
0.374208
0.400022
0.553597
0.513289
0.605108
0.660802
0.698565
0.758244
0.302253
0.319377
0.295075
0.248683
0.249057
0.270971
0.286962
0.259836
0.334764
0.307204
1.72605
2.49476
0.241294
0.235152
10.2517
7.29755
7.04484
11.4057
7.76151
3.63366
4.54875
5.91913
0.912761
0.805852
1.07055
1.20277
1.13502
1.4044
1.66362
1.0369
1.12286
1.908
2.14635
2.52699
3.06518
3.27112
3.08749
3.87837
0.641789
0.409803
0.348306
0.429296
0.462463
0.350668
0.346666
0.370389
0.400717
0.498965
0.540404
0.586575
0.639251
0.693383
0.739234
0.773233
0.33738
0.335561
0.262452
0.261986
0.276741
0.293221
0.31276
0.358075
0.32708
0.264369
0.361035
0.458497
10.664
7.53975
6.47381
4.31498
4.3917
11.5843
7.60072
3.71551
4.14697
4.95762
1.00671
0.876719
0.838714
1.61549
1.25986
1.35025
1.15896
1.24828
1.86929
2.11717
2.63669
3.13222
0.944781
3.87803
3.92216
4.47746
0.854578
0.455522
0.386804
0.429776
0.462374
0.371135
0.373309
0.398424
0.498412
0.539005
0.584337
0.635693
0.680297
0.713925
0.770654
0.782891
0.376176
0.37787
0.283054
0.282784
0.298944
0.315768
0.331774
0.385257
0.349434
0.332948
0.28358
0.302673
10.4477
3.29171
6.16611
5.39711
4.35535
11.7404
7.70914
3.51002
4.33029
5.22202
6.51452
1.11569
0.862337
0.976294
0.867314
1.29764
1.56127
1.41971
1.87386
2.27455
2.71537
2.99761
0.994426
4.63666
4.81282
5.5906
0.964597
0.532874
0.421954
0.460092
0.42606
0.396672
0.401677
0.49467
0.535264
0.627015
0.578133
0.667742
0.709719
0.711792
0.759966
0.823952
0.421508
0.407905
0.417834
0.304296
0.303464
0.330321
0.34941
0.372164
0.36464
0.30607
0.349463
10.9353
7.30173
2.47821
2.7169
4.9653
4.35675
3.59392
8.10778
11.6782
3.65402
4.28726
5.04612
6.20935
1.23862
0.892837
1.06792
0.919245
0.979826
1.46353
1.57339
1.37164
1.94505
2.32959
2.63831
3.13335
1.47405
5.55488
5.89856
6.51522
1.20788
0.610818
0.444734
0.463044
0.429006
0.429568
0.502864
0.534684
0.617386
0.580803
0.681161
0.711793
0.749131
0.798986
0.85711
0.474619
0.456775
0.45167
0.400131
0.330297
0.332456
0.351184
0.365318
0.381392
0.330774
0.412341
11.7556
8.623
6.4432
5.50839
1.92308
2.16862
2.59469
4.1624
3.56008
3.08902
1.56117
8.09184
11.4655
11.6747
3.6375
4.28798
5.73851
5.04662
1.19567
0.943882
1.04419
0.973716
1.51542
1.70893
1.33248
3.13816
2.00076
2.24162
2.7031
1.59805
6.75808
7.27317
8.13441
0.473389
1.44739
0.631168
0.466641
0.466569
0.554011
0.531775
0.636349
0.643753
0.598478
0.691275
0.752919
0.811263
0.537123
0.500035
0.485586
0.428654
0.414887
0.351332
0.347284
0.371955
0.394283
0.35538
0.440625
0.617021
0.702066
8.36457
6.67936
5.12869
4.42389
1.77569
2.19127
2.62916
3.42764
2.94203
1.4646
1.24731
1.07337
0.860721
0.799973
10.8309
7.80641
10.8555
8.13343
3.16462
3.67723
4.21667
5.60405
1.17295
0.996242
1.0563
1.72703
1.52246
1.33607
1.26962
2.69359
2.68788
1.97713
2.33248
1.95499
9.22463
8.37621
9.37283
0.665285
1.55639
0.501424
0.557444
0.639107
0.583256
0.686676
0.732801
0.786204
0.541475
0.52055
0.462879
0.440205
0.418149
0.380344
0.375292
0.39912
0.513486
0.384196
0.741298
0.619382
0.680215
6.409
5.41963
4.19619
3.58392
1.79217
2.24733
2.47653
2.82513
1.57428
1.23732
1.30377
0.760503
1.04561
0.825783
0.900504
8.01285
6.67113
6.2525
5.15082
3.0025
3.52707
4.60312
2.63039
1.13366
1.0573
1.64541
1.40684
1.532
1.36024
1.22197
2.36244
2.40651
2.00183
1.80411
11.305
10.5276
11.3654
1.07531
1.74609
0.552425
0.325719
0.635581
0.700512
0.759611
0.561334
0.49899
0.479268
0.452833
0.426529
0.403016
0.39636
0.462784
0.40187
0.691125
0.616146
5.04642
5.20355
4.42532
3.43665
2.91191
1.92208
2.12035
2.36741
1.64355
1.45871
1.28052
0.768993
0.819099
1.128
0.891279
0.984568
5.79421
5.17641
5.13595
4.29851
2.32756
3.11933
3.40962
2.69069
4.32648
1.1215
1.72947
1.56774
1.47289
1.30098
1.19121
1.80687
1.99252
2.03127
1.85
15.1849
13.6379
15.6491
3.07298
0.617831
0.901218
0.681396
0.743257
0.54147
0.513411
0.483969
0.459919
0.433653
0.429523
0.471781
0.437814
0.67673
0.587682
4.25038
4.32604
3.54113
2.79965
2.41798
1.82953
2.01411
1.58802
1.39072
1.23524
0.73914
0.801274
1.10345
0.887542
0.980629
4.27265
4.13339
3.34532
1.89332
2.0972
2.38375
2.6044
3.55148
1.50034
1.37258
1.25155
1.64509
1.58003
1.79791
2.64497
20.8828
27.3965
9.4525
0.677889
1.11674
0.739183
0.560258
0.525762
0.4952
0.46285
0.458289
0.50637
0.641493
0.605448
3.51507
3.45936
2.81686
2.32353
2.0518
1.73467
1.51063
1.32712
1.17599
0.701314
0.770843
1.04884
0.849662
0.94195
3.40615
3.40175
2.78919
1.95536
2.1278
2.30828
1.81823
2.82759
1.41158
1.30882
1.5097
1.54038
1.67697
4.70961
46.1628
45.4983
21.3376
0.754577
2.34216
0.566036
0.536535
0.494039
0.502083
0.61862
0.66322
0.617523
2.83005
2.81309
2.33797
1.98757
1.76637
1.53934
1.35298
1.20186
0.722681
0.795329
1.07356
0.873576
0.967579
2.78428
2.77102
2.32925
1.85494
1.98324
1.68678
2.347
1.35724
1.43021
1.45601
1.52722
1314.39
10.097
77.9378
81.0458
51.3549
1482.01
0.57955
0.541244
0.556468
0.553661
0.848951
0.669739
0.63024
2.30199
2.32658
1.99986
1.72339
1.50583
1.33252
1.18733
0.734069
0.800822
1.07025
0.880699
0.966507
2.21336
2.23581
1.98269
1.68309
1.53065
1.95586
2.00959
1105.58
1207.53
23.4074
139.888
140.023
1581.88
1368.75
1951.35
0.594757
0.541555
0.613937
0.610638
1.41879
0.685712
0.625129
2.01128
2.00478
1.7267
1.50891
1.33495
1.1959
0.749651
0.819722
1.08029
0.982877
0.896165
1.97308
1.75619
1.5274
1.74006
1.81119
1.77997
765.467
975.981
1147.91
53.4549
1532.77
1304.29
1833.44
1961.62
0.621454
0.617012
0.683088
3.05496
0.69939
0.634824
1.67086
1.68281
1.48697
1.32162
1.19071
0.750479
0.83217
1.08565
0.991898
0.909469
1.76057
1.57274
1.62301
1.65276
1.63803
1.61587
713.688
612.069
896.867
1138.66
1897.4
1679.15
1524.14
1292.57
1911.12
1980.95
0.660359
0.68119
0.756261
0.68186
0.700277
0.74003
1.54804
1.37307
1.2523
1.13419
0.81067
0.822034
1.06372
0.964323
0.918441
1.57055
1.5248
1.52905
1.50798
1.48162
557.946
507.664
864.027
1195.12
2190.32
1965.45
1473.47
1725.33
1572.47
1349.38
2039.01
2022.5
0.695952
0.723837
0.739426
0.761955
0.822643
1.45043
1.33284
1.23496
1.13747
0.853109
0.878213
1.06159
0.990497
0.932851
1.42033
1.38875
1.34338
2450.88
445.485
441.049
884.166
1369.65
2212.43
2138.4
1260.08
1495.97
1817.14
1713.69
1528.18
2268.96
2098.59
0.72605
0.752573
0.787701
0.820094
1.3213
1.27178
1.2044
1.13311
0.865972
0.909182
1.06606
1.0083
0.953792
2895.44
2421.2
366.595
407.003
990.172
1881.78
2276.79
2426.54
1155.69
1260.34
1549.96
1968.54
2040.62
2051.75
2678.1
2236.94
3322.01
3008.93
2396.78
314.33
408.276
1333.73
4454.41
2420.95
2930.35
989.008
1163.26
1290.29
1654.57
2223.55
2895.97
4638.45
3463.12
2480.2
3374.63
3730.33
3055.31
2413.84
292.739
487.405
3078.96
2703.1
3777.11
876.878
999.846
1193.13
1365.59
1844.79
2686.57
6776.13
5314.96
3328.46
3869.22
4149.72
3087.38
2526.08
322.067
958.446
3284.15
5364.24
596.851
869.563
1048.52
1261.84
1514.65
2208.01
3718.06
12567.3
2677.49
3691.78
4513.08
4527.48
3165.43
2828.81
573.959
4693.47
129.283
536.972
868.488
1148.88
1397.41
1807.68
3042.48
7544.66
2913.5
3106.21
4042.65
5373.21
4859.41
3400.78
3638.47
10114.7
83.7187
121.438
493.298
873.616
1332.49
1665.93
2486.76
6174.05
2433.23
3307.49
3645.1
4412.07
6531.2
5250.09
4126.14
6828.3
91.1741
88.1427
117.576
462.945
887.91
1679.29
2289.52
4978.53
1331.41
2827.15
3767.01
4314.44
4845.35
7939.79
6144.98
7108.67
97.2215
99.1874
95.7612
118.789
446.981
922.913
2459.74
4556.28
1074.7
1550.08
3270.76
4341.89
5137.08
5750.11
9646.62
9593.87
97.6942
105.687
110.74
107.94
128.818
449.704
1032.72
5230.72
930.487
1170.44
1773.57
3799.1
5167.85
6152.6
7955.47
11964.7
92.3583
106.141
117.891
127.701
127.756
160.347
520.425
1298.49
947.542
1045.2
1279.78
2056.74
4444.76
6529.14
8214.98
11074.4
85.3094
100.281
118.327
135.869
154.167
163.409
249.633
1060.45
1072.27
1058.44
1172.16
1429.99
2480.84
5264.72
9352.44
18307.6
128.449
89.7415
111.807
136.293
164.025
200.823
246.35
662.697
1340.33
1171.31
1183.19
1334.92
1667.13
3222.28
6565.44
15180.9
577.358
121.151
97.421
128.797
164.451
213.959
307.812
600.143
2461.58
1555.57
1284.07
1345.15
1575.8
2090.63
4718.63
11706
901.628
523.298
117.719
109.704
155.394
214.41
328.776
763.809
3035.38
2868.79
1775.81
1437.08
1586.63
1989.28
3015.51
9090.5
1000.68
888.335
481.817
119.341
129.698
202.382
329.347
817.161
2747.71
3554.3
3367.24
2044.53
1676.41
2002.8
2870.04
6007.86
1174.24
1015.62
885.552
452.002
129.957
165.662
310.21
817.14
3384.25
3263.75
4187.31
4061.11
2429.68
2111.35
2892.01
5721.19
1268.84
1185.48
1069.47
890.721
436.162
162.011
249.022
767.082
3312.45
3823.95
4029.85
4963.78
5097.88
3055.37
3072.86
5793.82
1486.16
1271.49
1220.45
1176.03
905.919
438.911
251.596
601.78
3216.15
3796.17
4411.78
5292.47
5947.92
6901.36
4314.09
6262.36
1705.85
1513.7
1305.31
1295.64
1367.82
943.978
509.482
662.145
2899.41
3593.79
4443.38
5267.25
7595.71
7504.79
12998.6
8285.55
2081.6
1891.11
1763.6
1573.76
1385.74
1439.94
1727.54
1057.64
1047.88
2436.83
3024.55
4006.29
5288.77
6581.8
12863.8
10945.7
66128.9
1696.87
2082.95
1987.31
1868.47
1684.73
1541.91
1722.53
2538.81
1341.48
2175.96
2407.13
3079.87
4432.08
6430.75
8669.48
27849.5
14148.5
1848.22
1532.39
1655.59
2103.75
2130.41
2033.01
1882.59
1847.68
2376.76
5421.43
2185.32
2380.79
3102
4866.06
7938.68
12080.5
77314
1911.82
767.221
1437.63
1435.22
1656.09
2149.76
2380.05
2303.09
2257.99
2553.15
4760.37
851.454
1214.22
2240.54
2393.94
3165.83
5380.85
9748.49
10888
2070.64
600.842
1323.33
1380.85
1716.73
2234.1
2818.32
2787.2
3117.5
5150.54
678.438
1084.44
2377.51
2501.05
3399.03
6331.83
11494.8
2344.18
480.468
1260.97
1379.14
1878.57
2385.33
3654.46
3856.83
6354.85
563.599
1004.15
2651.25
2797.43
4117.94
9617.67
2827.14
395.852
1254.55
1449.57
2243.18
2651.46
5632.34
7834.98
489.691
972.669
3216.1
3593.01
7032.91
3658.78
339.244
1321.44
1653.6
3195.25
13422.5
450.676
999.585
4585.43
6725.47
5226.23
314.828
1521.47
2238.21
7538.91
448.72
1121.92
9841.93
343.009
2101.58
5136.95
527.321
1509.33
610.022
5000.26
1009.4
3464.59
0.90603
0.86623
0.890954
0.890873
0.920112
0.916283
0.929831
0.929222
0.947148
0.833827
0.854739
0.862935
0.88669
0.893356
0.916594
0.926055
1.00137
1.02546
1.0492
1.08568
1.11289
0.946259
0.958977
0.94529
0.946325
0.954569
0.949092
0.973686
0.965975
0.992034
1.15607
1.17649
0.806158
0.828106
0.839622
0.861528
0.873055
0.892869
0.90948
0.929276
0.945689
0.964014
0.983344
1.00293
1.03237
1.05992
1.10881
1.13649
1.22579
1.24051
0.976864
0.991826
1.01139
1.02749
1.05186
1.07375
1.11433
0.972257
0.976755
0.974622
0.97364
0.992974
0.98123
1.02188
1.00875
1.04181
1.11398
1.14385
1.31067
1.33649
1.22353
1.2177
1.29935
0.786536
0.805914
0.822443
0.841356
0.858979
0.87761
0.897714
0.915315
0.943139
0.963787
0.989048
1.0088
1.07398
1.1012
1.14582
1.17196
1.24325
1.26849
1.34952
1.38621
1.48005
1.49379
1.62782
0.999362
1.00867
1.02781
1.04395
1.06908
0.997953
0.999802
1.00858
1.00126
1.03385
1.01939
1.09376
1.06965
1.05299
1.07841
1.13797
1.142
1.22519
1.25101
1.57239
1.36589
1.48743
1.31669
1.36247
0.775557
0.793399
0.813494
0.832523
0.853503
0.871532
0.894097
0.914481
0.935712
0.960801
0.991055
1.03216
1.16867
1.10497
1.21805
1.27171
1.34326
1.36486
1.45055
1.6759
1.72346
1.74237
2.01154
2.0436
1.94654
2.09024
2.09352
2.81573
1.02164
1.03131
1.04779
1.06374
1.14623
1.118
1.02625
1.02336
1.04387
1.03342
1.09658
1.07437
1.05996
1.19813
1.16828
1.08892
1.12854
1.15978
3.64069
3.07037
5.66563
1.23228
1.23549
1.32375
1.35511
1.61017
1.64131
2.30742
1.93621
1.55184
1.6191
0.781359
0.795394
0.82057
0.8365
0.862995
0.879511
0.90898
0.928785
0.991535
0.968564
1.0475
1.07477
1.1704
1.18722
1.36757
1.36487
1.54705
1.55971
1.73324
1.76444
1.94686
22.6075
21.1959
12.4927
2.0099
2.23284
2.40816
2.67654
2.95176
3.10256
3.0915
11.6162
4.93239
1049.67
1328.2
1243.67
1827.4
1541.11
1655.97
1768.02
1836.69
1.04704
1.0492
1.07232
1.08641
1.14232
1.11815
1.05712
1.0506
1.10025
1.08145
1.07019
1.252
1.21984
1.18996
1.16376
1.107
1.15442
1.25102
1.18772
1.24208
894.955
629.025
109.671
57.4262
25.0336
2.46009
4.08695
5.36901
14.8964
1.36616
1.37234
1.38164
1.37265
1.59681
1.62951
1.76947
1.70548
2.29208
961.139
1258.25
1472.62
1399.31
1619.77
1764.78
1798.3
1857.23
1809.3
1760.66
0.872425
0.838308
0.903088
0.891292
0.949401
0.94162
0.999875
0.995762
1.05282
1.05083
1.1205
1.11909
1.23851
1.26962
1.32044
1.33796
1.16365
1.45781
1.27082
1.32041
2.81096
2.80707
3.38463
3.81089
3.72432
58.3706
94.1501
300.444
182.526
56.3318
39.1211
6.343
8.39858
12.1458
11.4449
36.1056
16.7619
14.8204
390.071
930.532
614.483
675.447
955.988
1183.37
1309.81
1303.21
1608.3
1596.55
1606.04
1519.13
1823.82
1883.52
1917.59
1741.54
1890.73
1811.61
1.07566
1.07596
1.097
1.11303
1.14477
1.12134
1.10973
1.09199
1.0817
1.30377
1.26924
1.23593
1.20897
1.18381
1.1606
1.12804
1.17413
1.17986
1.24307
1.2482
1.31124
1.24027
185.235
492.04
331.48
848.212
525.125
92.1997
198.233
70.5562
23.7167
1.37627
17.3944
3.06441
6.21097
4.38176
1.54735
1.48036
1.66929
1.5628
1.7055
1.69312
1.93436
1.79317
3.07689
949.725
1332.37
846.915
1460.83
1650.86
1260.99
1490.37
1772.35
1777.4
1795.38
1616.05
1797.44
5.16775
1.15933
103.703
29.145
2.4221
1.18644
1.78991
1.13747
1.48657
1.09036
1.32631
1.29358
1.24767
1.40522
1.3725
1.60681
2.28956
1.4325
2.74942
4.13121
4.26353
7.77397
22.2871
8.64235
9.28907
39.2783
42.6528
14.8737
13.5933
19.061
19.9579
26.667
28.2944
122.064
185.455
344.668
238.028
132.73
83.7109
49.307
54.2052
99.0789
66.7066
72.9898
608.421
480.429
648.839
963.321
854.286
1267.34
1172.26
1578.51
1415.58
1475.6
1678.58
1847.18
1773.67
1672.69
1856.51
1938.2
1945.23
1.13359
1.1042
1.10201
1.12192
1.14425
1.1257
1.11747
1.14608
1.3585
1.32212
1.28275
1.25211
1.22405
1.19715
1.18111
1.15871
1.40807
1.35052
1.4094
1.46357
1.4243
1.45733
1.19891
1.19447
1.20071
1.22591
1.39298
1.30063
1.33824
1.25592
505.744
397.229
234.236
35.588
172.516
96.0399
1.47885
1.75428
1.68083
44.9474
4.3999
12.4771
7.68789
1.97434
1.89712
2.08116
2.01065
2.39964
2.10368
5.15369
465.823
1040.97
1313.71
901.548
645.839
1473.2
1208.29
1518.22
992.43
1796.41
1841.03
1923.18
1805.55
1665.68
222.313
246.238
58.9988
11.5569
252.712
218.876
30.4906
11.1225
21.3227
6.4028
13.4838
4.23681
9.34791
2.35842
4.42371
10.1048
30.2421
18.3131
37.307
20.0404
26.5661
65.0651
101.77
111.558
56.9098
53.9348
120.634
137.438
62.5449
70.1251
95.1357
96.2069
126.451
103.583
402.404
215.643
290.805
268.955
210.846
189.635
238.905
141.065
220.563
715.403
527.21
1197.69
937.058
1045.63
1487.59
1333.53
1675.77
1590.68
1779.67
1720.98
1.43958
1.40581
1.13096
1.14767
1.15065
1.13509
1.13305
1.15822
1.17541
1.32593
1.28102
1.2634
1.22853
1.21536
1.1898
1.18094
1.16277
1.37061
1.33306
1.35303
1.3793
1.33167
1.36312
1.19334
1.20276
1.21472
1.26435
1.51425
1.37865
1.4112
1.3078
91.686
191.345
291.428
1.63525
1.94073
1.90113
2.34678
2.3194
23.6903
102.243
7.06998
21.592
2.58339
2.33153
4.04322
2.96259
8.17152
314.3
604.382
517.975
1137.37
1171.98
1386.98
1801.81
1939.07
1030.58
1658.83
2062.09
2000.47
2022.03
1875.19
223.082
198.72
102.35
249.114
231.569
290.702
234.685
151.643
319.666
395.98
225.189
107.482
175.418
66.7451
124.75
50.7644
65.7455
89.0626
64.4626
143.974
110.869
102.985
103.66
113.171
219.89
241.704
259.815
295.88
188.732
181.457
321.595
339.327
206.497
226.578
290.366
283.371
325.075
552.316
456.696
517.263
358.641
458.214
467.873
415.238
503.78
1028.91
827.36
1386.24
1239.63
1594.96
1516.25
1676.88
1611.63
1.48239
1.42109
1.37562
1.34152
1.16705
1.16276
1.16426
1.17473
1.19102
1.29984
1.27312
1.24799
1.22827
1.20866
1.1944
1.18583
1.29704
1.3165
1.2766
1.30354
1.27943
1.30286
1.20836
1.2095
1.23623
1.33413
1.25189
1.21367
1.68182
1.52453
1.54352
1.41786
1.822
234.276
140.62
2.19208
2.222
2.53523
2.61107
3.45011
4.11112
2.55381
26.6795
127.232
31.8939
9.78965
6.28867
28.6242
587.786
389.158
1298.34
1036.22
1760.81
1887.41
2164.8
2178.93
2253.67
2141.06
6.55034
33.2096
256.859
280.879
64.4719
236.902
310.731
252.146
417.663
447.13
256.89
338.186
455.203
436.268
454.404
299.529
376.8
278.135
242.575
228
388.278
290.868
400.938
332.525
340.51
455.466
503.062
502.83
531.405
448.52
427.707
379.653
594.5
611.906
472.928
491.746
631.921
628.633
821.01
927.429
805.208
768.194
834.096
745.632
807.024
1283.37
1180.91
1453.72
1385.23
1492.8
1430.8
0.890048
1.61361
1.49827
1.4598
1.41379
1.35988
1.32535
1.29072
1.18041
1.18377
1.18349
1.18499
1.21483
1.26202
1.24565
1.22496
1.21255
1.19834
1.23199
1.2533
1.2324
1.25515
1.24466
1.26406
1.21314
1.27057
1.28484
1.43106
1.2556
1.2808
1.92669
1.60219
1.68114
1.45069
2.26477
2.70897
2.81926
461.712
187.937
2.96736
2.37456
9.07365
4.3532
41.8135
34.9518
22.9771
143.018
231.681
81.2267
1260.57
781.101
1930.52
1712.22
2233.15
2282.51
2497.27
2452.1
3.29796
20.3811
254.274
394.875
41.0813
148.927
413.95
329.856
325.708
438.783
344.943
274.505
602.008
411.69
540.985
576.314
579.247
583.897
581.541
505.806
496.488
622.396
596.179
604.26
626.53
752.568
708.502
724.301
730.451
747.956
716.143
856.421
645.281
696.862
875.803
836.858
790.251
804.111
931.363
930.91
1010.41
1012.37
1199.23
1053.8
1070.22
1307.26
1251.42
1303.56
1258.67
0.781658
0.836956
0.89318
1.51204
1.46198
1.44294
1.40826
1.39154
1.35813
1.31211
1.25438
1.28782
1.38025
1.40435
1.19911
1.18672
1.17878
1.18026
1.21525
1.19532
1.1911
1.2015
1.21512
1.20603
1.22683
1.22243
1.23845
1.22675
1.26142
1.31464
1.40541
1.45623
1.34512
1.83531
2.31612
1.59823
1.90902
2.58816
3.69461
2.85921
3.85938
7.55156
2.04254
913.516
534.939
37.9847
15.0622
152.79
88.4376
402.682
712.806
301.724
1812.76
1579.82
2289.96
2396.44
2719.69
2712.05
2.41715
12.8121
215.274
451.584
24.6482
97.9002
464.615
483.315
258.639
289.785
473.267
335.322
544.273
478.407
267.327
344.061
668.477
503.139
566.547
538.418
624.41
679.913
678.182
631.858
661.38
720.647
705.232
708.035
857.204
807.039
771.063
755.91
704.857
847.17
869.508
953.203
892.906
901.711
974.586
988.383
956.668
969.384
999.579
1016.46
1189.08
1142.04
1053.73
1180.35
1155.63
0.769983
0.79116
0.822754
0.890112
0.933534
1.44806
1.36857
1.35775
1.33361
1.33293
1.23058
1.2768
1.25674
1.30489
1.33148
1.31987
1.30181
1.32665
1.28939
1.28725
1.24438
1.2459
1.23086
1.19015
1.18799
1.18892
1.19276
1.22313
1.18838
1.19738
1.20448
1.21109
1.20839
1.22417
1.22854
1.26195
1.35535
1.2945
1.42313
1.58548
1.53445
1.68693
2.20692
2.72241
1.9053
2.3029
3.33448
4.89747
15.2863
11.0042
9.41989
21.5685
75.885
66.0259
1708.39
1162.69
335.886
313.168
802.238
1252.13
769.496
2260.17
2455.8
2827.52
2994.43
1.95546
7.67264
164.026
428.394
14.3158
57.5924
439.849
556.64
313.495
255.492
544.113
424.479
359.282
293.964
242.569
246.84
564.13
543.046
306.539
428.572
351.353
433.533
542.428
627.406
607.838
596.674
558.791
567.562
511.526
708.447
705.113
591.51
515.919
543.229
530.323
719.209
766.79
974.334
1007.65
1004.4
985.581
990.933
1011.64
1029.68
987.046
994.39
1.3206
0.778937
0.786088
0.806131
0.833602
0.868104
0.933736
0.978614
0.801656
0.799766
0.834618
0.826237
0.874324
0.857736
1.20019
1.21132
1.15703
1.16991
1.1094
1.12627
1.05924
1.08142
0.918303
0.896944
0.964492
0.93854
1.01111
1.03353
0.984317
1.29945
1.28969
1.27294
1.28008
1.24856
1.23762
1.26403
1.25785
1.25578
1.24176
1.26506
1.21755
1.22071
1.17622
1.18212
1.22969
1.19294
1.21009
1.19139
1.20775
1.21015
1.20639
1.21302
1.21323
1.22404
1.23404
1.23271
1.23219
1.22923
1.32612
1.25603
1.48591
1.37493
1.57087
1.83266
1.72729
2.04397
2.6711
3.9273
2.41915
3.06114
4.50962
13.6137
162.511
100.881
193.768
42.9379
177.181
457.345
570.002
2306.42
1860.89
1134.43
1875.53
1214.54
2929.11
2984.37
1.54361
4.90757
413.415
102.386
196.379
8.69084
34.8295
563.44
596.221
367.433
280.788
588.916
457.238
638.689
238.573
235.14
227.399
422.467
366.639
215.42
255.266
283.48
236.711
375.729
438.185
399.159
355.192
375.476
329.606
388.089
315.701
400.742
254.024
337.306
237.6
321.491
552.474
990.648
950.116
683.238
938.697
895.168
1.23422
0.974114
1.01843
0.812872
0.821324
0.846419
0.879371
0.918047
0.831071
0.833042
0.857144
0.856479
0.891864
0.885135
1.13581
1.14849
1.09672
1.11245
1.05457
1.0721
1.01266
1.03321
0.931191
0.918253
0.970539
0.992877
0.95448
1.24802
1.23879
1.22896
1.24416
1.23665
1.20137
1.20682
1.19661
1.21977
1.16453
1.17085
1.12434
1.13403
1.23027
1.23168
1.23103
1.24251
1.23527
1.24224
1.24439
1.23704
1.24798
1.26803
1.25054
1.25265
1.24843
1.3786
1.30158
1.31087
1.63612
1.45713
1.7498
2.20359
2.08154
2.59104
3.55288
7.70897
3.16782
4.97235
9.8404
74
582.024
733.596
514.02
751.961
199.803
633.337
1112.62
1417.23
1912
3117.79
2352.09
1.3885
2.19557
4.32046
234.511
483.9
58.2034
143.023
14.741
543.121
662.108
344.333
251.187
633.871
390.952
665.126
623.137
511.567
507.994
197.483
214.839
283.723
247.454
179.391
191.874
201.322
179.885
237.742
264.172
251.497
223.471
214.545
199.227
170.667
160.188
142.658
124.376
166.115
118.668
708.836
194.849
506.966
2929.41
1.02135
1.09639
0.926442
0.985622
0.848518
0.863882
0.894239
0.863261
0.866495
0.88436
0.885476
0.910989
0.909826
1.0879
1.10109
1.05086
1.0689
1.01245
1.03226
0.977421
0.999752
0.94464
0.967359
0.937175
1.20964
1.20819
1.20324
1.19714
1.15771
1.17084
1.16293
1.19196
1.1228
1.13472
1.08866
1.10001
1.23241
1.21769
1.25794
1.24769
1.32395
1.297
1.34047
1.32951
1.28014
1.29639
1.3472
1.30518
1.2789
1.37924
1.2981
1.29846
1.52535
1.5161
1.84402
1.82135
2.61702
2.46609
3.95845
2.97131
5.65621
18.1447
4.42167
8.11126
52.1784
253.778
504.368
1295.2
1410.07
1181.37
1232.7
1611.5
1964.24
2219.52
29.3432
1.17932
1.22208
2.014
2.7129
8.91138
376.891
91.6344
184.807
625.208
436.741
230.093
299.222
634.191
654.245
319.844
410.427
664.047
607.533
527.022
419.945
171.519
194.333
187.615
178.238
153.368
157.354
152.09
152.945
156.302
166.76
118.739
122.031
95.7509
96.1677
85.7814
82.971
112.636
84.2651
1.00108
1.06206
0.89109
0.912801
0.95617
0.896778
0.913337
0.914034
0.916622
0.932451
0.934813
1.05516
1.07045
1.01974
1.04279
0.989484
1.0109
0.962432
0.983653
0.957072
1.20642
1.18319
1.18143
1.18428
1.12978
1.14634
1.17926
1.14624
1.09631
1.11461
1.06782
1.08325
1.26476
1.24106
1.24064
1.30526
1.27982
1.41894
1.40553
1.39396
1.42646
1.55233
1.50034
1.50307
1.4648
1.43962
1.37242
1.33763
1.51314
1.45058
1.56303
2.04103
1.79347
3.35268
3.48303
2.43052
3.27276
5.41033
5.82767
23.839
73.2752
19.511
202.6
416.216
745.625
1413.83
1953.11
1974.84
2294.99
8028.33
136.884
1.10015
17.5412
45.8474
1.21673
1.315
1.38511
2.2254
3.11243
7.99535
372.878
258.486
642.191
584.508
200.737
254.101
699.522
679.914
276.609
367.961
641.864
559.962
427.471
146.728
170.526
125.895
129.961
129.497
119.652
103.218
106.029
85.9997
89.7207
80.5136
81.7631
79.4799
82.2294
1.05236
0.934929
0.980299
1.01494
1.02578
0.9322
0.953256
0.943817
0.951626
0.958048
0.959538
1.03392
1.05668
1.00778
1.03026
0.981664
1.00498
0.98063
1.06155
1.17897
1.17792
1.18517
1.16167
1.13988
1.11595
1.1885
1.11464
1.09515
1.09131
1.25978
1.22247
1.28784
1.32968
1.33376
1.41506
1.39738
1.55822
1.59874
1.65589
1.63112
1.84708
1.84268
1.78094
1.5955
1.55455
1.75574
1.71596
1.89049
1.88068
2.64265
2.55922
6.38686
6.57059
6.10599
4.62198
35.6341
26.2408
263.614
163.516
595.421
765.876
1123.05
1978.65
272.165
80.8913
134.699
1.25395
1.17037
12.4397
38.6062
1.3386
1.62755
2.19895
2.65489
7.94871
551.23
429.645
715.162
694.732
176.605
232.064
728.894
653.257
532.409
417.862
274.586
125.225
145.496
97.8976
107.161
104.578
86.4613
90.1922
84.3613
84.9523
85.9957
87.6825
1.11752
1.18
0.983499
0.99803
1.07045
1.13932
0.976429
0.990827
0.977262
0.98998
0.989312
0.995748
1.05683
1.03962
1.01758
1.03431
1.01198
1.25346
1.09514
1.0789
1.0786
1.16911
1.17902
1.14515
1.23417
1.18701
1.15805
1.12807
1.34407
1.33137
1.42566
1.39165
1.52743
1.50998
1.722
1.67162
1.92224
2.02196
2.53215
2.33985
2.21558
1.9988
1.91842
2.09312
2.0883
2.41764
2.49441
2.46358
5.30111
4.20783
38.7749
13.1158
17.9188
10.3394
284.683
155.196
749.877
519.092
1065.04
943.296
417.53
191.948
282.821
63.0231
124.064
1.43019
1.2745
11.9033
32.5254
2.6099
1.52574
5.38677
676.877
581.31
757.592
774.634
237.917
173.915
144.468
736.56
544.137
440.058
309.736
254.391
102.059
116.779
87.1453
91.0245
85.7307
85.5715
90.9558
89.4908
1.21445
1.32616
1.02621
1.08688
1.13805
1.25569
1.02482
1.05556
1.03568
1.01038
1.04934
1.04773
1.08204
1.05597
1.07428
1.33031
1.28835
1.14467
1.12967
1.14664
1.13444
1.19899
1.2682
1.18086
1.20501
1.17431
1.52712
1.51838
1.45061
1.66153
1.6252
1.87182
1.99153
1.94465
2.34835
2.28796
4.17596
3.21004
3.31168
3.00488
2.81791
2.70864
3.82442
3.86247
3.74895
3.38524
6.42991
23.4541
16.5302
200.003
90.0482
94.3782
586.032
408.55
960.631
783.803
342.18
538.443
645.356
163.795
314.268
48.8035
114.642
1.4529
1.83395
7.57479
31.1444
2.02778
4.61167
794.961
768.179
795.386
775.619
851.102
149.881
174.931
115.956
660.569
503.236
333.858
280.202
171.014
87.3744
97.3335
85.3373
83.4516
91.4512
88.5995
1.35878
1.58168
1.10098
1.17327
1.25207
1.43196
1.1118
1.08639
1.14919
1.14368
1.14105
1.13664
1.12932
1.4273
1.32349
1.19918
1.21028
1.18002
1.23743
1.31063
1.25829
1.31315
1.25192
1.85173
1.76076
1.71797
1.57865
2.29065
2.59731
2.39894
2.61227
2.96795
2.79567
3.89521
3.33668
4.96824
5.46701
5.37791
3.63282
8.24807
8.53952
6.62148
74.7745
38.0732
201.049
182.863
507.609
398.767
799.026
707.702
365.555
547.758
677.088
165.432
323.585
45.0703
113.829
2.51494
1.83076
7.94302
5.32287
24.0442
672.132
890.12
880.668
890.146
814.829
864.356
702.832
898.874
126.718
97.0573
517.454
327.75