/*--------------------------------*- C++ -*----------------------------------*\
  =========                 |
  \\      /  F ield         | OpenFOAM: The Open Source CFD Toolbox
   \\    /   O peration     | Website:  https://openfoam.org
    \\  /    A nd           | Version:  8
     \\/     M anipulation  |
\*---------------------------------------------------------------------------*/
FoamFile
{
    version     2.0;
    format      ascii;
    class       volScalarField;
    location    "3000";
    object      p;
}
// * * * * * * * * * * * * * * * * * * * * * * * * * * * * * * * * * * * * * //

dimensions      [0 2 -2 0 0 0 0];

internalField   nonuniform List<scalar> 
4109
(
-0.00551914
-0.0177663
-0.00878841
-0.0287341
-0.029872
-0.0185171
-0.0286842
-0.0146577
-0.0391911
-0.0396608
-0.0389826
-0.0429223
-0.00912343
-0.022874
-0.0317493
-0.0463231
-0.0506839
-0.0466953
-0.0450613
-0.0419498
-0.00271242
-0.0324331
-0.0327354
-0.0537402
-0.0545826
-0.0622127
-0.00304032
-0.00825821
-0.00559342
-0.0520189
-0.0455561
-0.0470222
-0.0299832
-0.0868689
-0.0618067
-0.0572069
-0.0622109
-0.0762189
-0.0165337
-0.00504387
-0.000180331
-0.0132434
0.000370377
-0.0560861
-0.0517973
0.0902578
-0.0558566
-0.0470809
-0.0550407
-0.0764269
-0.068298
-0.065842
-0.0716365
-0.0884024
-0.0239684
-0.0109656
-0.0051981
0.0150118
-0.00958146
-0.0210205
-0.0678246
0.0650808
-0.0616232
-0.0561841
-0.0523034
-0.0337093
-0.0585231
-0.0519307
-0.0577265
-0.053681
-0.105319
-0.0803942
-0.125611
-0.125502
-0.127079
-0.0299602
-0.0327585
-0.0231534
-0.0123308
-0.0206112
-0.0117976
-0.0150716
-0.0160048
-0.0261766
0.0156369
-0.206773
0.123733
-0.236274
-0.00806061
-0.0811819
-0.0712145
-0.0614961
-0.0557021
-0.0533364
-0.0540874
0.0316531
-0.0530284
-0.0620121
-0.125363
-0.108774
-0.0978344
-0.139415
-0.1373
-0.145532
-0.151033
-0.034436
-0.0374271
-0.0399125
-0.0230622
-0.0047718
0.0639428
-0.015371
-0.0156195
-0.0236601
-0.030221
-0.578981
0.112122
0.0118656
-0.00549462
-0.309715
-0.120346
0.261544
-0.0882507
-0.07773
-0.0695271
-0.056237
-0.0550342
-0.0464354
-0.0744117
-0.063285
-0.0569432
-0.119832
-0.111585
-0.148538
-0.133418
-0.178063
-0.166453
-0.0416013
-0.0475706
-0.0504258
-0.0340262
0.00853417
0.0595796
-0.0129568
-0.0243082
-0.0271608
-0.0345386
0.0879754
0.0820155
-0.215337
-0.100482
-0.137514
0.0954449
-0.0861895
-0.0841189
-0.0756686
-0.0600885
-0.0485971
-0.0437201
-0.0396123
-0.00604954
-0.0286313
-0.108915
-0.0999414
-0.14801
-0.123332
-0.166225
-0.181392
-0.214675
-0.0519864
-0.058108
-0.0627523
-0.0509176
0.00797335
0.0295661
-0.0198811
-0.0237467
-0.0259093
-0.0427857
0.0191916
-0.158054
0.0162156
-0.0697009
-0.0838195
-0.0218414
-0.080296
-0.0852312
-0.0723087
-0.0458577
-0.0460236
-0.0281101
-0.0138465
-0.0106977
-0.0929986
-0.100401
-0.138515
-0.111901
-0.157366
-0.185237
-0.216265
-0.256726
-0.0663083
-0.0724866
-0.0756637
-0.0670323
-0.0157318
0.00398417
-0.0100892
-0.011939
-0.0241729
-0.05679
-0.092834
-0.103648
-0.0846895
-0.0154294
-0.0943439
-0.0462624
-0.0767803
-0.0781665
-0.0944549
-0.0487042
0.0960943
0.0668169
-0.0807198
-0.0858951
-0.12762
-0.0966653
-0.147248
-0.178747
-0.215536
-0.256289
-0.302549
-0.0824533
-0.0866503
-0.0872663
-0.0800833
-0.00852973
0.0294227
0.00992749
0.0132288
-0.0989569
-0.0381489
-0.0735884
-0.0638589
-0.0630654
0.0545787
-0.138819
-0.208921
-0.0525781
-0.0850048
-0.0603588
-0.0900522
0.0604689
0.0675233
-0.0632611
-0.0654715
-0.111546
-0.0766338
-0.130945
-0.169764
-0.206449
-0.249019
-0.298302
-0.349485
-0.104211
-0.0950617
-0.0918132
-0.116296
0.0209804
0.101316
-0.0172945
-0.113199
-0.0906349
-0.0616292
-0.175193
-0.129471
-0.231204
0.0634869
-0.197083
0.0101112
1.07809
-0.0565132
-0.0102343
-0.337551
-0.0964565
-0.0535667
-0.0290417
-0.0862015
-0.0442658
-0.108792
-0.152933
-0.196006
-0.23729
-0.285759
-0.333305
-0.37027
-0.382942
-0.11354
-0.116811
-0.108188
-0.134077
-0.130486
0.0198086
0.100884
-0.0553827
-0.107446
-0.0841849
-0.0650441
-0.222309
-0.0283614
-0.0483692
0.402683
0.0501082
1.08397
1.12372
1.13624
1.02863
1.02888
0.970462
-0.661619
-0.249114
-0.148089
-0.112454
0.0147446
-0.0463672
-0.0386941
-0.0805072
-0.131943
-0.177992
-0.371031
-0.226027
-0.271867
-0.322301
-0.394437
-0.40068
-0.411476
-0.386426
-0.136889
-0.136416
-0.153367
-0.148404
-0.12505
-0.0256066
-0.0109041
-0.0909356
-0.103894
0.335403
0.118141
1.01261
-0.105028
1.19984
1.16357
1.16965
1.07775
1.19668
1.21865
-0.314696
-0.362267
-0.329327
0.94669
0.922018
0.993073
0.909667
1.01658
0.109462
0.164708
0.161046
0.0235223
-0.027316
-0.399084
-0.104624
-0.1089
-0.155067
-0.204727
-0.359984
-0.260833
-0.310784
-0.437638
-0.418975
-0.424628
-0.437541
-0.427227
-0.437866
-0.166471
-0.1594
-0.174266
-0.165223
-0.142
-0.122685
-0.0966679
-0.153445
-0.104095
0.778545
0.616187
1.2448
1.23207
1.15619
1.27705
1.30566
-0.247282
-0.192391
-0.194874
-0.484416
-0.319401
0.827173
0.812178
0.842586
0.942109
1.08285
-0.0892826
0.446098
0.435973
0.0324364
-0.0787592
-0.394247
-0.420839
-0.114467
-0.130848
-0.173667
-0.234254
-0.354239
-0.302694
-0.47295
-0.450999
-0.484054
-0.474538
-0.518028
-0.597343
-0.197885
-0.18569
-0.120148
-0.203093
-0.178612
-0.158252
-0.138448
-0.223417
-0.108681
-0.0777691
-0.104789
-0.263072
1.20503
1.32594
1.32303
1.23145
1.37111
1.40717
-0.797758
-0.0184209
0.188017
-0.0812885
-0.0973253
0.629672
0.410345
-0.313572
-0.168641
0.716408
0.842816
0.987733
1.1651
-0.155417
0.0241061
0.132287
-0.0272248
-0.101538
-0.400924
-0.445764
-0.128741
-0.143981
-0.191632
-0.269369
-0.354375
-0.52826
-0.491333
-0.552817
-0.553414
-0.655045
-0.867371
-0.231927
-0.244753
-0.215998
-0.123046
-0.134631
-0.174445
-0.193954
-0.150517
-0.245256
-0.215767
-0.521873
-0.250494
-0.239586
-0.0475167
1.25016
1.23364
1.16548
1.42901
1.42568
1.32473
1.48584
1.5393
-0.632123
-1.1952
0.0453804
0.200355
0.0721671
0.402812
0.584339
-0.0990982
0.0133384
0.711788
0.870658
1.07812
1.27825
-0.257036
-0.225487
-0.229231
-0.0574434
-0.0468357
-0.10126
-0.414265
-0.477029
-0.136449
-0.160596
-0.225617
-0.323227
-0.53981
-0.597555
-0.643698
-0.666882
-0.869437
-1.17152
-1.45095
-0.269865
-0.282443
-0.145787
-0.140717
-0.165221
-0.185305
-0.209494
-0.281822
-0.242533
-0.202734
-0.0787267
0.366414
1.32563
1.30231
1.2398
1.07004
1.16186
1.54986
1.55075
1.43836
1.59975
1.63096
-0.393904
-0.997915
-1.71261
0.550728
0.253621
0.353291
0.129805
0.184884
0.731259
0.967489
1.22458
1.41146
0.302625
-0.185555
-0.252054
-0.261184
-0.10103
-0.0211847
-0.0519446
-0.394011
-0.477858
-0.198452
-0.135128
-0.285665
-0.567953
-0.663823
-0.756091
-0.829793
-1.09978
-1.3882
-1.76779
-2.05779
-0.315338
-0.320793
-0.120823
-0.147889
-0.166042
-0.187209
-0.223591
-0.317972
-0.283339
-0.244868
-0.0486619
0.0239554
1.43186
0.967932
1.34164
1.2748
1.14734
1.67644
1.68075
1.56808
1.72245
1.73618
1.70149
-0.110406
-2.17661
-0.695702
-1.36903
0.337188
0.54804
0.369699
0.825006
1.15494
1.385
1.5622
0.0282333
-0.113633
-0.173772
-0.141451
-0.0749044
0.0940014
0.0348801
-0.481334
-0.371484
-0.264244
-0.182409
-0.601598
-0.736731
-1.00261
-0.872861
-1.30748
-1.96691
-1.62628
-2.26196
-2.49963
-0.359575
-0.356522
-0.355723
-0.134693
-0.155796
-0.195305
-0.246855
-0.321019
-0.282288
-0.0871849
-0.0732867
1.55511
1.43174
0.823086
0.955812
1.33534
1.21936
1.04427
1.79477
1.78982
1.70888
1.84584
1.84018
1.81661
0.159241
-2.72871
-0.336206
-1.78266
-0.950538
0.495321
0.658576
0.394374
1.0279
1.33453
1.55787
1.73
0.0200549
-0.0201873
-0.0981198
-0.10183
0.0297701
0.17875
-0.00185731
-0.511134
-0.358587
-0.268548
-0.680239
-0.835985
-1.1672
-1.0031
-1.55541
-1.9633
-2.32568
-2.73472
-3.09667
-0.400908
-0.393524
-0.396045
-0.364767
-0.142046
-0.163163
-0.218351
-0.281001
-0.323129
-0.0767656
-0.0420929
1.67769
1.58288
1.51707
1.41455
0.634661
0.815303
0.926394
1.2924
1.15709
1.0056
0.422157
1.88452
1.87225
1.79089
1.85982
1.95484
1.91877
1.95464
0.0572386
-2.27489
-0.508149
-1.31441
0.657093
0.862853
0.429386
1.91286
1.22044
1.53122
1.75981
0.0456015
-0.0417475
-0.0818333
-0.0519598
-0.163503
0.0330178
0.0559734
-0.533434
-0.345414
-0.895973
-0.758084
-1.31818
-1.66337
-1.15497
-2.21126
-2.84226
-3.3627
-0.416227
-0.449805
-0.44469
-0.415476
-0.373131
-0.15681
-0.182073
-0.254306
-0.324343
-0.0770736
-0.0296324
-0.396547
-0.339521
1.69515
1.61902
1.5028
1.37956
0.64338
0.81136
0.945368
1.23295
1.08884
0.45634
0.208078
0.0084312
-0.159861
-0.27432
1.91063
1.94409
1.8787
1.80039
2.09566
2.00663
2.0367
2.00002
-0.0355553
-1.73924
-0.792509
1.04824
0.783969
0.642214
0.382496
2.20316
1.98363
1.44654
1.7803
0.0311363
-0.110537
0.0176775
0.498306
-0.351048
-0.0489848
-0.724606
-0.493335
-1.56038
-1.15066
-1.92888
-2.78841
-3.50373
-0.464228
-0.490541
-0.474082
-0.433728
-0.37889
-0.177075
-0.220501
-0.303527
-0.0573844
-0.0712842
-0.333942
-0.44039
-0.371042
1.71403
1.60607
1.47786
1.32229
0.661665
0.834382
1.00269
1.15678
0.497049
0.254724
0.334041
-0.330799
0.055279
-0.244341
-0.113846
1.8992
1.96487
1.81807
2.03616
2.25047
2.12706
2.08115
2.38175
-0.247198
-1.14002
1.28124
1.15728
1.02122
0.999777
0.319963
2.07151
2.34366
1.78103
0.219213
0.14827
0.901542
0.566276
-0.250999
-0.390958
-0.876909
-0.564804
-1.67067
-2.56245
-3.49801
-0.519103
-0.532592
-0.505438
-0.451499
-0.368862
-0.228852
-0.280341
-0.0935694
-0.106778
-0.410976
-0.520154
1.83133
1.71874
1.58642
1.42848
1.23829
0.691707
0.884528
1.06009
0.535124
0.378827
0.189336
-0.416072
-0.367227
0.0385904
-0.277996
-0.137328
1.92417
2.00412
1.94482
2.12187
2.55422
2.39933
2.23111
2.531
1.94682
-0.483669
1.71687
1.59074
1.4388
0.94035
0.234364
2.36226
2.20645
2.52618
0.198208
0.636238
2.16091
0.458419
0.476741
-1.23373
-0.768396
-2.15787
-3.33661
-0.587027
-0.581663
-0.544683
-0.462285
-0.298012
-0.362453
-0.155469
-0.149053
-0.521886
-0.627583
1.83644
1.71223
1.55029
1.33483
1.13106
0.739094
0.93543
0.573963
0.382141
0.187884
-0.503517
-0.441152
0.000202547
-0.334154
-0.183007
2.08373
2.02867
2.28301
2.93889
2.71638
2.73413
2.55354
2.00289
1.88096
1.55931
0.983548
2.28391
2.72095
3.03324
0.121134
0.849569
-0.129431
-0.197984
-1.67405
-0.962918
-2.98703
-0.655651
-0.645756
-0.590361
-0.295479
-0.454061
-0.346299
-0.6481
-0.720335
1.69419
1.84749
1.45839
1.20401
0.998499
0.783488
0.603286
0.39517
0.171205
-0.626265
-0.554675
-0.0555565
-0.43216
-0.262158
2.13772
2.23391
2.52646
3.24885
2.98232
2.83347
3.49522
2.04463
2.12933
1.73263
2.66902
3.11726
3.54217
-0.208068
0.0814261
0.121538
-0.195105
-2.39539
-1.35319
-0.746093
-0.717157
-0.486966
-0.603248
-0.62094
-0.760485
-0.842773
1.6303
1.82899
1.32167
1.07377
0.837291
0.638488
0.401896
0.141198
-0.753665
-0.684963
-0.120164
-0.550487
-0.357176
2.25316
2.42309
2.80928
3.51109
3.17326
3.92375
2.0295
2.44912
3.13025
3.71755
4.23676
-32.1611
-0.239575
0.284682
0.336545
-0.404095
-31.4209
-0.852489
-0.764746
-0.88881
-1.00582
-0.709506
-0.91205
-0.993439
1.7514
1.51224
1.19665
0.910288
0.689398
0.412367
0.106022
-0.924119
-0.853478
-0.198314
-0.699533
-0.474857
2.65418
2.34254
3.29014
3.97102
4.59889
2.52075
2.07562
-34.2408
-32.1612
-0.147948
0.149637
0.193662
-29.3904
-31.2953
-31.6576
-0.98913
-1.04
-1.17252
-1.19754
-0.824929
-1.11763
-1.19047
1.71652
1.41369
1.0331
0.779251
0.429908
0.0515874
-1.1749
-1.09395
-0.311405
-0.638473
-0.905887
3.09206
3.90919
4.73341
2.93845
2.51729
2.07911
-35.2224
-34.3099
-32.162
-0.503882
-28.7996
-31.0357
-33.8524
-30.8688
-1.32367
-1.4951
-1.54134
-1.34408
-1.42997
-1.46557
1.64133
1.24321
0.941277
0.470023
-0.00760878
-1.56708
-1.43718
-0.449008
-0.843098
-1.17661
3.75834
4.71496
2.85153
3.50995
2.52586
2.06905
-36.0578
-35.3692
-34.3436
-32.146
-34.9173
-27.3718
-28.558
-30.7829
-33.9881
-30.657
-1.76585
-1.98076
-2.32041
-1.92786
-1.76927
-1.93919
1.5136
1.01728
0.454138
-0.102821
-2.15646
-1.86643
-0.628246
-1.10131
-1.51612
4.5476
3.2139
4.20037
2.76773
2.20234
-36.0678
-35.4939
-34.3599
-32.1257
-33.7245
-35.1577
-27.516
-27.3731
-28.4295
-30.5557
-33.902
-30.6423
-2.30498
-2.89573
-2.43824
-2.56369
-2.6999
1.60739
1.00504
0.37716
-0.258453
-2.53291
-2.25132
-0.862564
-1.40877
-1.88464
3.72433
3.13599
2.45532
-38.6469
-35.9428
-35.5804
-34.3697
-32.1026
-33.7933
-35.3207
-25.4047
-27.5543
-27.3423
-28.3374
-30.3485
-33.7769
-30.5622
-3.21643
-3.36468
-3.41146
-3.36268
1.74576
1.00953
0.259416
-0.472735
-3.13237
-2.76599
-1.156
-1.77308
-2.31522
-41.4813
-38.754
-35.8264
-35.6418
-34.3812
-32.08
-33.9289
-35.4802
-24.974
-25.4236
-27.5842
-27.2942
-28.2651
-30.1634
-33.633
-30.3941
-46.1744
-41.6712
-38.8263
-35.7395
-35.6869
-34.3951
-32.0569
-34.043
-35.6524
-20.9993
-25.1544
-25.4388
-27.5876
-27.2673
-28.1933
-30.0444
-33.485
-30.1924
-48.8749
-46.0092
-41.7769
-38.8866
-35.6811
-35.7222
-34.4114
-34.1289
-35.8415
-25.3309
-20.8016
-25.2871
-25.4381
-27.5721
-27.2566
-28.1166
-33.3655
-94.0849
-48.4135
-45.9736
-41.8508
-38.916
-35.6431
-35.7449
-34.179
-36.0159
-20.0813
-26.1119
-20.8103
-25.3515
-25.4365
-27.5474
-27.2625
-33.3122
-30.7272
-103.37
-47.2702
-46.0216
-41.9061
-38.9214
-35.6238
-34.1798
-21.6753
-20.2008
-26.9365
-20.8396
-25.3762
-25.437
-27.5224
-27.2694
-44.773
-31.1424
-112.307
-46.0138
-46.0927
-41.9339
-38.9105
-34.1492
-20.9367
-21.742
-20.2701
-27.7227
-20.8744
-25.3783
-25.4437
-27.5128
27.2903
-52.366
-30.841
-120.37
-44.7436
-46.1551
-41.9391
-38.8861
-20.8893
-20.8941
-21.8203
-20.3414
-28.4513
-20.9191
-25.372
-25.4518
34.8871
30.3886
-60.8384
-30.3271
-127.467
-43.4581
-46.1516
-41.9211
-20.4705
-20.8337
-20.8537
-21.8754
-20.4272
-29.1575
-20.948
-25.381
47.2573
35.9769
33.5052
-68.6894
-29.689
-134.162
-42.2793
-46.0792
-20.4774
-20.4017
-20.7791
-20.8198
-21.9136
-20.524
-29.8406
-20.9376
49.9569
48.1206
37.1011
35.824
-75.8273
-28.8913
-141.175
-41.4788
-20.9043
-20.4061
-20.3285
-20.7261
-20.794
-21.9417
-20.6186
-30.2662
49.884
50.5085
49.0257
38.0295
37.7668
-82.8308
-28.152
-146.458
-20.9525
-20.8463
-20.3313
-20.2606
-20.6761
-20.7748
-21.9635
-20.6873
47.4716
50.476
51.1208
49.7562
38.924
39.5749
-90.6201
-28.0439
-21.6907
-20.9071
-20.7903
-20.2623
-20.2006
-20.631
-20.7591
-21.978
34.5055
48.1976
51.0664
51.6763
50.3449
39.8864
41.3624
-97.2231
-20.0365
-21.7617
-20.8658
-20.7356
-20.2015
-20.1487
-20.5959
-20.7476
27.0193
35.5499
49.0564
51.6039
52.1618
50.8341
40.9025
42.6135
-25.3292
-20.1213
-21.8408
-20.8313
-20.6836
-20.1489
-20.1103
-20.5788
-43.7
29.9424
36.6496
49.7608
52.0774
52.5897
51.2133
41.572
-20.9958
-26.1649
-20.1842
-21.8974
-20.8055
-20.6365
-20.1097
-20.0925
-29.8522
-51.3058
32.8557
37.5411
50.3301
52.4959
52.9453
51.4314
-24.8869
-20.789
-27.0015
-20.2516
-21.9377
-20.7863
-20.5995
-20.0916
-94.0935
-30.3233
-59.6557
34.9518
38.3913
50.7947
52.843
53.1466
-25.3643
-25.0676
-20.7904
-27.7872
-20.3322
-21.9685
-20.7707
-20.5815
-49.0273
-103.797
-29.8932
-67.3195
36.6999
39.3266
51.1623
53.0393
-27.5205
-25.3889
-25.1953
-20.8174
-28.5138
-20.4217
-21.9927
-20.7591
-45.7818
-48.5013
-112.852
-29.1969
-74.2469
38.3706
40.2832
51.3731
-27.2573
-27.5459
-25.4044
-25.2542
-20.8525
-29.2167
-20.5113
-22.0085
-41.6606
-45.6412
-47.3034
-120.999
-28.3838
-81.0735
39.9904
40.8837
-30.5867
-34.3103
-27.2646
-27.5754
-25.4053
-25.2754
-20.8964
-29.8865
-20.5736
-38.3509
-41.8294
-45.6347
-46.0408
-128.199
-27.4501
-88.595
41.2317
-28.2283
-30.5196
-34.3408
-27.2333
-27.5809
-25.4052
-25.2719
-20.9235
-30.2996
-33.9218
-38.474
-41.9246
-45.7046
-44.7704
-134.984
-26.6175
-94.9829
-34.68
-31.0218
-27.91
-30.5904
-34.2712
-27.1848
-27.5669
-25.4075
-25.2643
-20.9128
-33.8199
-38.556
-41.9988
-45.7959
-43.4948
-142.1
-26.481
-35.038
-35.8587
-31.8097
-30.8222
-27.792
-30.546
-34.1891
-27.1581
-27.5436
-25.4143
-25.2713
-35.297
-34.1267
-33.9384
-38.6217
-42.0543
-45.8724
-42.3096
-147.467
-35.216
-35.9061
-31.7636
-30.5502
-27.6914
-30.4144
-34.0802
-27.1513
-27.5202
-25.4232
-35.3818
-34.2025
-34.0652
-38.6558
-42.0887
-45.8772
-41.5517
-35.3625
-35.7985
-31.7293
-30.3092
-27.6168
-30.2264
-33.9625
-27.1555
-27.5105
-35.4996
-34.2105
-34.1615
-38.6677
-42.0997
-45.8083
-35.5191
-35.682
-31.701
-30.0959
-27.5681
-30.0183
-33.8712
-27.1614
-35.5899
-34.218
-34.218
-38.6587
-42.0857
-35.6923
-35.5928
-31.6733
-29.8981
-27.5175
-33.8363
-35.6545
-34.2251
-34.2251
-38.6362
-35.854
-35.5344
-31.6441
-29.7277
-27.4517
-35.7018
-34.2361
-34.1961
-35.4974
-31.6105
-29.6168
-35.7389
-34.2517
-35.4787
-31.5872
-35.7639
-34.2684
-3.24515
-3.62979
-3.68178
-4.19542
-4.17319
-4.74232
-3.17462
-3.64117
-2.71814
-3.96087
-4.02778
-4.5808
-4.66995
-5.33342
-5.33495
-6.00215
-8.06284
-8.83019
-8.89187
-9.80717
-9.62907
-5.98232
-6.65939
-4.71086
-5.3297
-3.55934
-4.09168
-2.60553
-3.01674
-2.13422
-10.5594
-10.1933
-4.15193
-4.33873
-4.93469
-5.04202
-5.6542
-5.87012
-6.63398
-6.65996
-7.42497
-7.36651
-8.07742
-8.82674
-9.61131
-9.60115
-10.441
-10.622
-11.6238
-11.518
-6.6036
-7.31907
-7.28651
-8.07634
-8.00813
-8.79686
-9.28443
-5.21485
-5.84583
-3.9125
-4.47442
-2.83492
-3.26593
-1.94126
-2.27226
-1.46055
-8.6666
-9.06794
-12.487
-13.4075
-10.1284
-10.9175
-11.8829
-4.2359
-4.46999
-5.09278
-5.33372
-6.03195
-6.14157
-6.88385
-7.18161
-8.00961
-8.09256
-8.88802
-9.65962
-10.5005
-10.4567
-11.2956
-11.2503
-12.2175
-12.3844
-13.0862
-13.4105
-14.5089
-14.0186
-14.8916
-5.68735
-6.47169
-6.57913
-7.25718
-7.45033
-4.26815
-4.88911
-3.01123
-3.5061
-2.01503
-2.36146
-0.702804
-1.18459
-1.44886
-7.11983
-7.89172
-7.63993
-8.79032
-10.1568
-14.4679
-12.5276
-13.9182
-11.3882
-12.5555
-4.14831
-4.4968
-5.16132
-5.45534
-6.17903
-6.47812
-7.20842
-7.41124
-8.2234
-8.4965
-9.17841
-9.6614
-11.204
-10.8264
-12.2281
-12.2428
-13.31
-13.2355
-13.8719
-14.6579
-15.1214
-15.1813
-16.0953
-15.8089
-15.6505
-16.2122
-16.339
-17.5352
-4.9043
-5.72695
-5.32943
-6.04357
0.142299
-0.339962
-3.35035
-4.08305
-2.02805
-2.50807
-0.515843
-1.08544
-1.35599
1.03106
0.585435
-5.66683
-6.45762
-6.31135
-18.6727
-17.6043
-19.3071
-7.66416
-8.97245
-10.267
-11.4447
-13.728
-14.8605
-16.5315
-15.8712
-12.698
-13.7839
-3.91226
-4.33691
-5.05579
-5.45695
-6.21552
-6.55365
-7.31437
-7.63687
-8.73382
-8.40615
-9.61483
-9.8114
-10.7125
-11.272
-12.8865
-12.3659
-13.831
-13.948
-14.6316
-15.2084
-15.0768
-20.6336
-21.0436
-19.7893
-16.1816
-15.9516
-16.9398
-16.8996
-17.2555
-18.0617
-17.6496
-19.7811
-19.0374
-29.4177
-30.1368
-29.7967
-32.4021
-31.2305
-30.7657
-30.9955
-30.6791
-3.6766
-4.26113
-3.71772
-4.40399
0.510706
-0.0596931
-2.11634
-2.69114
-0.253465
-0.940932
-1.26677
1.92348
1.54966
1.57431
1.06398
-3.94608
-4.83189
-7.66709
-4.49078
-6.01435
-29.113
-27.5413
-23.5053
-22.7477
-21.3692
-16.9851
-18.378
-19.1464
-20.5974
-7.88551
-8.98674
-8.83954
-10.3711
-11.7035
-13.0071
-14.3088
-15.1305
-16.503
-29.8194
-30.7814
-32.3325
-30.6942
-32.1291
-33.7904
-32.6396
-31.795
-33.0577
-32.8796
-3.38847
-4.00655
-4.81708
-5.31525
-6.13866
-6.56657
-7.48039
-7.76964
-8.56978
-8.84782
-10.2388
-9.76949
-11.092
-11.2496
-12.263
-12.8363
-12.8748
-14.2132
-13.8036
-14.9754
-15.6828
-15.631
-16.6542
-16.7342
-16.37
-21.9895
-22.9078
-25.0271
-24.1641
-21.6481
-20.7347
-17.6766
-17.7564
-18.3616
-18.6287
-20.6007
-19.4099
-19.0864
-25.6184
-27.6007
-27.1669
-27.7156
-27.0948
-29.182
-29.4249
-30.0077
-32.0809
-31.1059
-31.5452
-31.2638
-31.6521
-31.763
-32.3046
-31.9945
-31.5394
-31.6606
-2.04629
-2.55556
-1.84116
-2.54046
1.00999
0.317671
0.147271
-0.661554
-0.967126
2.7647
2.45256
2.58172
2.15468
2.24402
1.69505
-1.70263
-2.32859
-3.64555
-3.97616
-5.50853
-6.40399
-2.94103
-24.7505
-27.1939
-26.113
-29.9361
-28.6115
-24.0382
-25.2236
-23.411
-21.4479
-6.4678
-21.192
-17.4103
-19.7807
-18.7423
-7.54762
-8.52444
-10.07
-10.5599
-12.1247
-12.573
-14.3573
-15.3481
-17.1006
-30.0298
-30.8999
-29.894
-32.8769
-32.5958
-34.1707
-32.3531
-32.2088
-31.4064
-31.9427
-33.1759
-32.8705
-2.72576
-3.36987
-2.13789
-2.19543
-4.3275
-5.03574
-6.00487
-6.4848
-7.49541
-8.02848
-9.11371
-9.23186
-10.5246
-11.3714
-10.2518
-12.0103
-12.6114
-13.563
-14.0838
-14.8983
-13.5535
-14.0912
-15.5844
-15.6221
-15.6473
-16.463
-16.3384
-16.4362
-16.4214
-17.1679
-17.2783
-17.9828
-18.3474
-22.5814
-23.5682
-24.6449
-24.0206
-22.2572
-21.5689
-19.312
-19.617
-21.3985
-20.4242
-20.3359
-25.4586
-25.106
-25.5131
-28.2886
-27.1456
-29.001
-28.776
-30.4639
-27.5597
-30.0246
-30.2925
-31.7324
-31.3446
-30.9967
-32.2428
-30.3124
-31.4081
-0.444523
-0.248757
-0.652739
0.0284631
1.68523
0.927183
0.735885
0.289664
3.58234
3.34692
3.60367
3.24959
3.45459
2.96522
3.07646
2.41759
4.30772
4.16577
4.89184
4.91469
5.47963
5.33384
1.08743
-0.512282
-1.29635
-1.33791
-5.18768
-3.44429
-1.57066
-0.791756
-28.6184
-28.1951
-26.5842
-22.4408
-25.6988
-24.2358
-4.90152
-6.65089
-8.424
-22.7347
-18.5887
-21.1644
-19.9416
-10.176
-11.2338
-12.7496
-13.2518
-14.872
-15.4196
-17.4213
-28.956
-32.6821
-33.3093
-32.185
-31.2121
-34.2029
-35.2122
-34.3793
-35.1927
-33.0228
-33.0064
-33.5837
-34.323
-33.9378
-1.31277
-1.8242
-4.31538
-4.36969
-3.12916
-3.72919
-5.68913
-6.24632
-8.04765
-8.09338
-9.19058
-9.66574
-11.2701
-11.2221
-12.1075
-12.6954
-13.6612
-13.9833
-14.9072
-14.7496
-15.5
-16.1023
-17.0244
-16.6796
-17.3036
-16.9662
-17.6789
-17.7142
-17.9425
-17.8729
-18.6599
-19.0001
-19.6475
-20.0241
-24.1689
-22.9142
-23.7962
-23.2243
-22.2194
-20.6227
-21.6084
-21.0421
-21.4539
-26.3347
-24.8987
-27.4014
-25.8807
-27.8957
-28.1147
-27.4117
-31.0253
-28.8599
-32.9075
-31.028
5.53865
5.80877
0.938861
1.14343
2.43996
1.68998
1.82241
2.12669
2.4231
4.50836
4.2113
4.51561
4.12576
4.39814
3.88202
4.1293
3.45855
5.35353
5.21124
6.02195
6.03295
6.63203
6.44332
2.96335
2.5365
2.46801
0.684258
-3.09592
-1.52745
0.148049
1.39579
-24.7225
-26.7394
-27.9303
-3.17439
-5.20607
-7.07079
-9.12239
-10.984
-22.5914
-24.4225
-18.8674
-21.6969
-13.0081
-14.2183
-16.3997
-16.8138
-19.0523
-28.8127
-31.0349
-30.5999
-33.7366
-31.2435
-32.8303
-34.6332
-34.6342
-35.3521
-33.4096
-34.458
-34.6941
-35.1012
-33.9229
-1.11832
-3.10709
-2.28262
-1.92858
-2.37061
-4.07287
-4.9717
-5.3533
-4.07536
-5.21381
-7.91369
-8.15596
-9.57268
-9.04666
-11.9351
-12.1797
-14.3217
-13.2922
-13.2716
-14.0631
-14.2787
-15.3027
-15.6115
-16.3174
-16.7344
-17.7491
-18.3061
-18.2086
-17.9837
-18.5692
-18.6849
-18.2513
-19.5199
-19.4315
-19.4524
-19.9139
-21.3376
-24.7065
-24.2758
-23.2629
-22.0764
-21.5009
-22.9158
-22.5885
-22.0517
-25.5388
-25.411
-27.3638
-26.4994
-27.6455
-27.767
-27.884
-27.5822
5.54602
5.92718
6.589
6.93023
3.64189
3.01922
3.33209
4.38198
4.28381
5.67178
5.39431
5.84879
5.26852
5.54023
4.88503
4.9927
6.48957
6.59661
7.33997
7.29566
8.01682
7.68694
6.15547
4.91592
4.23752
3.41193
4.65515
7.65298
-1.37952
0.282103
2.42138
4.09823
-1.2258
-28.5559
-26.4169
-2.96848
-5.25847
-7.44226
-9.76886
-12.8416
-14.9459
-14.4497
-21.3291
-25.9664
-23.6184
-17.8031
-18.3743
-20.9808
-31.9808
-29.9545
-35.0324
-33.5785
-35.6337
-35.6665
-36.1404
-35.261
-35.3754
-34.049
-2.9621
-2.40509
-2.71718
-3.80261
-3.92588
-3.30212
-4.0426
-5.7955
-6.84151
-8.02697
-6.40377
-8.10574
-8.09363
-8.95369
-12.9766
-12.2159
-13.7254
-13.8916
-16.7798
-15.0192
-14.8972
-14.174
-16.1545
-17.6016
-17.1326
-18.3567
-18.546
-18.3322
-19.1657
-18.3605
-19.5009
-20.0018
-20.0558
-18.8724
-20.6493
-20.0526
-20.5535
-21.7281
-22.7597
-25.771
-25.0405
-21.8367
-21.9586
-22.8669
-22.4154
-25.9949
-25.8126
-27.0513
-26.2272
-27.5475
-26.9708
-3.5249
-3.58829
5.33701
5.84538
6.47939
6.94267
7.6638
8.21517
5.93664
5.79168
6.73557
7.81323
8.42263
7.1037
6.82589
7.31706
6.60145
6.98202
8.08852
8.08843
8.91676
8.82794
9.67018
9.11297
9.63662
7.68102
6.268
6.63218
10.3764
9.55549
1.01737
2.95492
5.67312
7.28182
1.34241
-0.672238
-2.80567
-32.43
-28.7019
-5.76873
-8.80947
-12.1702
-14.4245
-18.3605
-19.7896
-23.5399
-27.3413
-30.3867
-25.098
-37.6122
-35.1161
-38.4317
-38.7243
-39.1214
-37.9515
-38.9964
-38.1506
-4.27634
-4.0102
-5.15731
-5.22588
-6.0759
-5.422
-6.28723
-7.71729
-8.60465
-9.70891
-8.44325
-9.70273
-13.7131
-11.0131
-12.1945
-13.1297
-14.1179
-14.0927
-15.2802
-17.5615
-16.0606
-17.4375
-15.8988
-18.7114
-18.0483
-20.3103
-18.75
-19.6382
-18.949
-19.1241
-19.0119
-20.0045
-20.396
-20.3489
-20.5154
-20.1571
-21.3193
-21.1484
-21.8482
-22.1376
-23.3831
-22.3042
-24.3936
-23.4758
-23.6317
-25.2082
-24.9416
-25.5715
-25.05
-3.97005
-4.14367
-4.96337
-4.97797
4.8911
5.49145
6.07475
6.64275
7.29598
7.96297
9.50866
8.81026
4.26666
4.88402
10.5917
10.208
8.37156
8.90332
8.89793
8.56617
9.14963
10.0817
9.894
10.8808
10.6275
11.2732
10.4375
12.0952
12.5904
13.4407
12.5767
9.34932
10.3819
6.27952
4.27507
10.6629
9.0913
5.24597
2.7149
-1.24696
3.59522
-4.17343
-6.89047
-37.5715
-33.8669
-11.2017
-15.7018
-22.5584
-24.4013
-33.5538
-38.4803
-32.8067
-39.9272
-40.0488
-41.5767
-41.0214
-42.2995
-40.9861
-5.83027
-6.2735
-6.94002
-7.10001
-8.14657
-7.57068
-9.01218
-9.86118
-10.8734
-11.9156
-10.8854
-11.9209
-14.8386
-13.881
-13.1846
-14.1658
-17.768
-14.9692
-15.3114
-16.9445
-16.4431
-18.2049
-17.512
-17.808
-17.834
-19.3101
-18.808
-19.9192
-20.1044
-19.7024
-19.7766
-19.4917
-19.4559
-20.4412
-20.6101
-20.6776
-21.014
-20.4431
-20.6852
-20.2821
-21.8147
-21.3273
-23.5978
-22.4416
-24.7818
-23.5264
-21.8613
-25.0628
-24.5622
-4.2569
-4.48791
-5.19066
-5.41239
-6.18006
-6.39032
5.38575
6.0702
6.62483
7.36399
10.8193
9.01125
9.97638
8.13396
3.53249
4.12773
4.52505
5.22395
2.72012
3.31086
1.86001
2.43013
12.5957
11.2463
10.866
11.8509
11.1171
11.9151
12.3872
12.0622
13.2512
12.4732
12.7796
12.0869
11.9022
14.0724
15.0205
15.2623
16.5419
15.9666
13.741
13.0864
10.037
8.11644
14.4174
13.0865
8.90771
6.51259
-0.349379
-5.2419
6.45031
2.57612
-8.62506
-14.0316
-45.3829
-42.8015
-23.2494
-31.7283
-40.8435
-46.227
-39.7549
-46.3903
-44.3265
-46.4218
-46.074
-7.35088
-8.14336
-10.2961
-10.3692
-9.39563
-9.40688
-11.1457
-12.1632
-13.0782
-13.9281
-13.4554
-14.1662
-16.0158
-15.0038
-14.7012
-15.2917
-18.0248
-17.8704
-16.9288
-18.3723
-16.9262
-17.4168
-18.6633
-18.967
-18.2198
-19.45
-19.4334
-20.6731
-20.2633
-20.2608
-20.1876
-20.1314
-20.7562
-20.7182
-20.5463
-20.7294
-20.6226
-20.4002
-21.1861
-20.5724
-21.2647
-23.6304
-21.4523
-21.7748
-25.1508
-21.6837
-7.76037
-4.21426
-4.51008
-5.23211
-5.57715
-6.32692
-6.63646
-7.32747
-4.18875
-4.47577
-3.99112
-4.35323
-3.66292
-4.06681
0.999068
1.49219
0.142165
0.564466
-0.693746
-0.320186
-1.44543
-1.16745
-3.25897
-3.70226
-2.72559
-3.19189
-2.12843
-1.92272
-2.60475
5.6924
6.54655
7.17846
8.15374
10.0917
11.0194
8.97834
3.60311
4.29662
4.67349
5.43414
2.59107
3.2498
1.52316
2.12775
10.8859
13.5838
14.9969
13.7226
14.223
13.8425
15.3951
14.7662
15.8236
14.9619
13.1416
13.3441
11.8686
16.4352
16.7984
17.1455
18.4876
18.3604
20.0833
20.0826
17.727
17.2756
14.3933
12.3281
18.9187
17.5809
12.6336
9.78326
-10.5697
-1.36783
-9.02106
8.35125
2.85214
-20.5383
-24.8481
-47.846
-50.2379
-35.6415
-65.9552
-55.8801
-54.2269
-46.8717
-8.80607
-9.57451
-11.7077
-11.8962
-12.0014
-10.7196
-11.4632
-13.5257
-13.9987
-15.1053
-15.3907
-15.0089
-15.9801
-15.6783
-16.3753
-17.1841
-16.2446
-19.4187
-18.8704
-17.725
-18.0819
-18.8895
-18.5392
-19.5031
-19.4505
-20.3917
-20.4007
-20.567
-20.4645
-20.9421
-20.9285
-20.8456
-21.1549
-20.8819
-20.966
-20.9343
-20.6338
-21.049
-20.6351
-20.4812
-24.7727
-20.7003
-9.10881
-7.58532
-8.39452
-5.12833
-5.53789
-6.25205
-6.64439
-7.31491
-4.9025
-5.30014
-4.61849
-5.06391
-4.20726
-4.68191
0.489966
1.00561
-0.481972
-0.0620995
-1.43883
-1.06264
-2.23629
-2.0147
-3.65963
-4.17251
-3.00655
-2.78957
-3.55146
5.86943
6.89497
7.4531
8.7293
9.54677
3.47639
4.25552
4.52062
5.42501
2.19407
2.91417
0.879942
1.54871
8.93741
11.2178
9.77483
17.2368
16.9894
16.4421
18.2481
17.4576
18.0412
15.9723
14.3287
14.0965
12.2718
20.2373
18.9328
19.0958
21.9435
21.8786
23.9582
24.0599
22.172
22.3201
19.1247
17.0892
24.1466
22.6385
17.4229
13.8317
-13.2538
-21.8268
-2.31527
-12.178
11.0415
3.29197
-29.0317
-30.7963
-40.6531
-88.0006
-80.2991
-10.0513
-10.6907
-11.6278
-12.7171
-13.4416
-13.2093
-13.2466
-12.6683
-16.0344
-16.6188
-17.2011
-17.2165
-16.4494
-17.7417
-17.0531
-17.8944
-18.2164
-18.5565
-18.2488
-18.0669
-19.7448
-19.4136
-18.8825
-19.0864
-19.7505
-19.4553
-20.1519
-20.4292
-20.6366
-20.6581
-21.1633
-20.998
-21.0315
-21.1513
-21.3845
-21.3436
-21.3908
-21.318
-19.9945
-21.5773
-20.8144
-30.1284
-9.0463
-9.89735
-7.73389
-8.62822
-5.97544
-6.44476
-7.29661
-5.7731
-6.28789
-5.31413
-5.89555
-4.68258
-5.26906
-0.257314
0.223179
-1.3335
-0.914529
-2.38942
-2.01883
-3.21988
-3.0368
-4.02564
-3.85252
-4.61232
5.77069
7.0118
7.64122
7.1893
3.00271
3.87732
4.05504
5.09789
1.49491
2.27841
0.00928261
0.79385
9.2867
7.83995
11.6011
10.0794
17.459
17.423
21.0636
20.3161
19.6538
18.7278
21.3905
21.0709
12.415
16.8166
15.2383
14.1301
23.372
23.2517
25.8026
25.5241
27.0455
27.9103
26.5125
28.0005
24.0215
22.3173
28.7485
27.5196
23.645
19.7142
21.4945
-18.9644
-28.7839
13.9337
-6.13935
-17.8464
-32.5724
-28.7022
-13.8467
-10.2177
-11.0399
-11.7336
-12.7206
-13.5999
-15.9008
-14.4734
-15.3576
-17.6899
-17.2415
-18.7443
-18.8104
-17.2582
-18.573
-19.0887
-19.2024
-19.3572
-18.9376
-19.2444
-19.4967
-19.3922
-19.3497
-20.2187
-20.02
-19.7583
-19.8365
-20.1559
-21.0415
-20.5715
-20.7583
-21.0867
-21.1023
-21.2512
-21.2448
-21.0494
-21.1656
-21.846
-21.1456
-9.09976
-9.81854
-7.19991
-7.74152
-8.64
-6.60004
-7.23974
-5.9155
-6.57318
-5.18296
-5.85531
-1.20418
-0.725848
-2.43396
-1.98714
-3.54358
-3.24014
-4.37027
-4.22865
-5.05773
7.1041
5.32723
6.21051
5.82633
2.31138
3.19651
4.16704
3.3815
0.711826
1.5283
-0.999588
-0.214819
9.06677
7.0828
5.74489
11.39
9.63885
17.9139
20.6873
19.5912
20.457
24.9454
23.59
24.7845
22.6694
22.9451
14.9542
12.45
17.6615
16.3087
19.2542
27.6073
27.1387
30.8483
33.3006
30.3945
31.1644
31.761
32.4586
33.43
28.7477
29.7141
29.8615
25.4781
27.0674
25.7082
21.2506
-21.7829
-39.974
-36.0732
-15.8439
-10.2824
-14.3938
-14.8894
-11.3081
-11.5963
-12.4474
-12.9849
-13.6764
-14.3173
-16.1851
-15.962
-17.5483
-17.2557
-19.7549
-19.7986
-18.7268
-18.9659
-20.194
-20.0083
-19.3663
-19.3418
-20.0048
-20.0885
-20.1299
-20.6582
-20.518
-20.3385
-20.5563
-20.9199
-20.7971
-21.0954
-21.0312
-20.9957
-20.9719
-21.0146
-21.0534
-10.2834
-8.01032
-8.60274
-9.36357
-9.66745
-7.3079
-8.02649
-6.50809