/*--------------------------------*- C++ -*----------------------------------*\
  =========                 |
  \\      /  F ield         | OpenFOAM: The Open Source CFD Toolbox
   \\    /   O peration     | Website:  https://openfoam.org
    \\  /    A nd           | Version:  8
     \\/     M anipulation  |
\*---------------------------------------------------------------------------*/
FoamFile
{
    version     2.0;
    format      ascii;
    class       volVectorField;
    location    "3000";
    object      U;
}
// * * * * * * * * * * * * * * * * * * * * * * * * * * * * * * * * * * * * * //

dimensions      [0 1 -1 0 0 0 0];

internalField   nonuniform List<vector> 
4109
(
(10.1198 0.000519971 0)
(10.1223 0.000554844 3.80042e-21)
(10.124 0.00250647 0)
(10.1218 -0.000210389 -8.1948e-21)
(10.1242 0.00150683 3.94111e-22)
(10.1269 0.00237531 6.58226e-23)
(10.1278 0.00251619 -2.42375e-22)
(10.1334 0.00401911 0)
(10.1288 0.00239061 0)
(10.123 0.00039157 -2.81784e-21)
(10.125 0.00129468 3.42402e-21)
(10.1338 0.00314689 1.51315e-21)
(10.1364 0.00797746 2.23551e-21)
(10.1368 0.0042975 -1.00249e-22)
(10.1346 0.00331455 2.3417e-21)
(10.13 0.00222568 -8.78446e-22)
(10.1243 0.000620802 5.41652e-22)
(10.1267 0.00160591 6.36668e-23)
(10.1356 0.00323657 0)
(10.1404 0.00369861 -3.19187e-21)
(10.159 0.00816749 1.83745e-21)
(10.1427 0.00842398 -5.04223e-21)
(10.1466 0.00601197 -5.56626e-22)
(10.1312 0.00229562 -2.19988e-21)
(10.1285 0.00175798 8.96222e-21)
(10.1256 0.000841925 3.0331e-21)
(10.1329 -0.00212106 0)
(10.1362 -0.00228459 8.9588e-22)
(10.1404 -0.00217443 -6.43739e-23)
(10.136 0.00326151 0)
(10.1419 0.00324083 0)
(10.1465 0.00465078 3.87355e-21)
(10.221 -2.47614e-05 -1.01461e-21)
(10.1507 0.00705255 -7.08772e-21)
(10.1489 0.00602242 0)
(10.132 0.00233865 -1.58273e-22)
(10.1279 0.00153969 -8.90213e-21)
(10.1266 0.000752502 -4.94669e-21)
(10.1328 -0.00217069 -1.43072e-21)
(10.1249 -0.0016175 0)
(10.1421 -0.00304158 -1.31732e-22)
(10.1392 -0.00333584 4.87951e-22)
(10.1418 -0.00893329 -1.53081e-22)
(10.1365 0.0033456 -2.22571e-21)
(10.1421 0.00324069 0)
(9.48074 0.0260947 7.0878e-22)
(10.135 -0.000372631 3.79681e-22)
(10.1489 0.00467069 -1.38791e-22)
(10.1496 0.00403355 6.70974e-22)
(10.2167 -0.00105409 4.61969e-21)
(10.1535 0.00533891 4.24436e-21)
(10.1308 0.00203307 -1.30024e-22)
(10.1292 0.0018522 -8.64347e-21)
(10.1281 0.00102504 1.94479e-21)
(10.1329 -0.00250418 -9.36467e-22)
(10.1266 -0.00186488 0)
(10.119 -0.000357822 0)
(10.1416 -0.00527437 1.35476e-22)
(10.143 -0.00417516 1.51125e-22)
(10.1389 -0.00347852 0)
(10.2401 -0.00276627 -1.44129e-22)
(8.88599 0.0142841 0)
(10.1362 0.00330649 -7.59585e-21)
(10.1427 0.00324355 0)
(10.1487 0.00440077 5.96262e-22)
(10.2461 -0.000858557 -3.86152e-22)
(9.74636 0.0280928 1.58137e-20)
(10.15 0.0037586 0)
(10.1508 0.00631923 -9.50002e-22)
(10.2301 -0.000417157 -5.81294e-22)
(10.1298 0.00127669 2.60918e-21)
(10.1309 0.00226346 5.7651e-21)
(10.1355 0.00387982 0)
(10.1319 0.00140898 1.17995e-20)
(10.1331 0.00226755 -1.76076e-20)
(10.1339 -0.00284874 9.44497e-22)
(10.1284 -0.00195623 0)
(10.1266 -0.00176465 0)
(10.1205 -0.000467267 0)
(10.2207 0.00675987 1.69121e-22)
(10.1468 -0.00464886 7.82434e-22)
(10.1416 -0.00486497 -7.2472e-22)
(10.1451 -0.00361126 8.64428e-23)
(10.1395 -0.00389935 0)
(10.3543 0.0186124 1.2144e-21)
(10.258 8.55035e-06 0)
(9.37363 -0.0429339 0)
(9.21597 0.0310595 -3.085e-20)
(8.84228 0.0202474 -1.04683e-21)
(10.1348 0.00273588 2.97082e-21)
(10.1371 0.00329316 7.59893e-21)
(10.1432 0.00334084 0)
(10.1492 0.00450066 -3.1249e-22)
(10.1506 0.00351474 -1.94561e-22)
(10.2875 -0.00495679 0)
(9.99272 0.0122721 0)
(10.1483 0.0059465 0)
(10.2206 0.000547786 3.07461e-22)
(10.1372 0.00394628 6.20942e-22)
(10.1343 0.00322141 -1.16119e-20)
(10.1318 0.00249025 1.32218e-20)
(10.1366 0.00384266 8.363e-21)
(10.1383 0.00452547 5.32695e-21)
(10.1347 0.00274235 6.20778e-21)
(10.1342 0.00122737 2.4234e-21)
(10.1347 -0.00333365 3.94272e-22)
(10.1305 -0.00263743 3.49316e-22)
(10.1263 -0.00154497 0)
(10.1212 -0.000625842 2.8248e-21)
(10.2091 0.00182181 1.5144e-22)
(10.3295 0.00916264 0)
(10.1451 -0.00537316 -3.16484e-22)
(10.1455 -0.00428961 -3.09703e-23)
(10.1454 -0.00403427 0)
(10.1399 -0.00421114 0)
(9.01873 -0.0380152 -1.43675e-20)
(10.1706 -0.0132116 -1.08368e-21)
(9.90985 -0.0362079 1.7252e-20)
(9.56753 0.0395135 -7.20148e-21)
(9.04844 0.0114442 1.09997e-20)
(8.75678 -0.00319186 8.60871e-21)
(10.2988 0.00205942 1.38121e-22)
(10.1362 0.00331149 -1.3568e-20)
(10.1394 0.00391132 -2.34736e-21)
(10.1441 0.00368445 -7.5019e-22)
(10.1495 0.00479674 0)
(10.1514 0.00387462 6.21516e-22)
(10.1472 0.00611449 -1.98177e-21)
(10.0767 0.00439795 3.37541e-21)
(10.3092 -0.00162227 0)
(10.2078 0.000912907 2.32992e-22)
(10.1404 0.00521819 6.87997e-21)
(10.1373 0.00405973 -4.32123e-21)
(10.1387 0.00472976 -8.17937e-21)
(10.1409 0.00582862 5.06423e-22)
(10.1372 0.00155847 0)
(10.1375 0.0037977 -4.92191e-21)
(10.1355 -0.00386703 -7.7158e-22)
(10.1307 -0.00281835 0)
(10.1268 -0.00171624 1.06601e-21)
(10.1225 -0.000761044 -2.82452e-21)
(10.2107 -0.0012677 -2.22646e-23)
(10.3261 -0.00306403 0)
(10.1429 -0.0066365 0)
(10.1466 -0.0044426 -2.96842e-22)
(10.1457 -0.00421205 1.4853e-22)
(10.1404 -0.00470155 0)
(9.13901 -0.0346335 -8.22475e-21)
(9.85906 -0.0391218 5.35293e-22)
(9.08638 0.0095847 0)
(9.64728 0.0186206 -3.78376e-21)
(8.76041 0.0225328 0)
(10.2683 -0.00130346 -1.28966e-22)
(10.1399 0.00438034 1.08153e-20)
(10.1395 0.00391637 2.34718e-21)
(10.145 0.00418096 7.13278e-22)
(10.1502 0.00562315 2.30297e-21)
(10.1514 0.00440727 1.08092e-21)
(10.1468 0.00696513 1.21305e-21)
(10.2021 0.00308292 -3.53823e-23)
(10.1214 0.00211384 -3.72431e-24)
(10.3213 -0.00265521 -2.32837e-22)
(10.1441 0.00619571 1.93028e-21)
(10.1402 0.00452013 0)
(10.1416 0.00626942 -3.14425e-22)
(10.1449 0.00726012 -1.66554e-21)
(10.1426 0.00640108 -2.08233e-22)
(10.141 0.00538592 0)
(10.1408 0.0017767 0)
(10.1365 -0.00457612 2.96392e-22)
(10.132 -0.0034193 1.1544e-22)
(10.1281 -0.0020901 -2.30112e-21)
(10.1232 -0.000650207 -4.76635e-22)
(10.2068 -0.00458728 -1.76825e-23)
(10.3265 -0.00414197 0)
(10.1409 -0.00768096 6.04528e-22)
(10.1483 -0.00456018 -1.4568e-22)
(10.1457 -0.00489651 -5.88363e-22)
(10.1414 -0.00561871 -3.61293e-22)
(9.77437 -0.0296448 -5.58726e-22)
(8.88279 -0.0128441 0)
(9.70552 0.0164662 4.89409e-24)
(9.09611 0.00600623 4.68591e-22)
(8.7618 0.0207096 1.066e-22)
(10.286 0.00324676 1.74707e-22)
(10.1456 0.00443709 -2.48381e-23)
(10.1462 0.00485653 2.48299e-23)
(10.1519 0.00621647 -1.19623e-21)
(10.1479 0.00758418 -1.94511e-21)
(10.1549 0.00410088 -8.60351e-22)
(10.1906 0.00623472 1.03619e-21)
(10.1074 0.00497627 -2.30238e-22)
(10.3172 0.00076959 1.33222e-22)
(10.1469 0.00535821 -9.28642e-22)
(10.1477 0.00636413 4.8718e-22)
(10.146 0.00829237 -4.89782e-22)
(10.1487 0.00754931 -6.715e-22)
(10.1477 0.00932281 4.85867e-22)
(10.1461 0.00770363 2.43815e-22)
(10.1421 0.00501501 1.84599e-21)
(10.145 0.000839194 0)
(10.1378 -0.00529819 -6.32062e-22)
(10.1332 -0.00388658 3.06506e-22)
(10.1295 -0.00251418 1.97405e-21)
(10.1248 -0.000894255 3.73173e-22)
(10.1929 -0.00629331 -3.40447e-22)
(10.3171 -0.00338854 -5.82787e-22)
(10.1398 -0.00787045 3.70501e-22)
(10.1495 -0.00534633 1.67878e-23)
(10.1463 -0.00650688 8.6123e-22)
(10.1428 -0.00687187 0)
(9.76129 -0.0191663 -1.30506e-21)
(8.86912 -0.00638683 6.30855e-22)
(9.07552 -0.00157015 0)
(9.68096 0.0117779 5.74713e-23)
(8.75445 0.0197073 -7.33471e-22)
(10.313 0.0116542 1.86681e-22)
(10.1528 0.00532418 0)
(10.1531 0.00566668 -9.09283e-22)
(10.1566 0.00420146 -2.9982e-21)
(10.1737 0.0130449 2.1841e-21)
(10.1067 0.0038765 2.76347e-24)
(10.3164 0.00248586 -4.78346e-22)
(10.1533 0.00704374 1.08582e-21)
(10.1536 0.0084766 2.0253e-21)
(10.1501 0.00887995 2.00865e-21)
(10.1543 0.0101993 -1.38577e-21)
(10.152 0.0101484 -1.02224e-21)
(10.1498 0.0104218 0)
(10.1473 0.00743677 -2.07476e-21)
(10.146 0.00574265 -2.12105e-21)
(10.1494 0.000840041 0)
(10.1392 -0.00592422 -2.90204e-21)
(10.1346 -0.00423416 7.60011e-21)
(10.1312 -0.00288173 3.37658e-21)
(10.1263 -0.00097007 -6.36845e-22)
(10.1769 -0.00777494 -2.2458e-22)
(10.3019 -0.00406072 1.6463e-22)
(10.1509 -0.00737659 -8.11219e-22)
(10.1405 -0.00801552 1.06208e-21)
(10.1407 -0.00631334 0)
(10.1483 -0.00889134 0)
(10.1446 -0.00788969 0)
(9.8231 -0.0166475 2.8475e-22)
(8.8794 -0.00898402 4.80429e-22)
(9.68286 0.00519086 5.41139e-23)
(9.07976 -0.00895791 6.50095e-23)
(8.76071 0.0212342 -6.44792e-23)
(10.3285 0.0174035 -4.80836e-22)
(10.1584 0.00307831 0)
(10.1566 0.00473239 4.72726e-22)
(10.1652 0.0165019 7.37525e-22)
(10.1063 0.00380927 -1.11362e-21)
(10.3181 0.00804856 5.72032e-22)
(10.1571 0.00685016 -3.28575e-22)
(10.1584 0.00753098 -2.71806e-22)
(10.1553 0.0119704 -3.84297e-22)
(10.1598 0.0100949 0)
(10.1567 0.0139868 0)
(10.1542 0.0113785 -3.15962e-22)
(10.1523 0.0113613 2.68142e-21)
(10.1505 0.00816149 -1.1097e-20)
(10.1503 0.00585819 0)
(10.1538 0.000958048 0)
(10.1372 -0.00503476 4.09582e-21)
(10.1344 -0.0040552 -5.55562e-21)
(10.1283 -0.00111049 2.36744e-21)
(10.1395 -0.00567192 4.09995e-21)
(10.1526 -0.0104443 1.88022e-21)
(10.279 -0.00504715 -3.34718e-21)
(10.1513 -0.00930115 -4.07615e-23)
(10.1429 -0.00689981 0)
(10.1464 -0.0085456 0)
(10.1508 -0.0100443 -5.70428e-22)
(8.88506 -0.00588884 2.92986e-22)
(9.86046 -0.0142523 5.0954e-22)
(9.08964 -0.0249302 8.01009e-22)
(9.6873 -0.00846962 -7.69207e-22)
(8.76628 0.0185058 0)
(10.3381 0.0272468 1.06658e-21)
(10.0158 -0.0174769 1.28648e-19)
(10.1675 0.0158551 0)
(10.1636 0.00996014 -2.24277e-22)
(10.1129 0.00559816 -1.49658e-20)
(10.3296 0.00657684 -4.23845e-21)
(10.1529 0.012999 1.44291e-21)
(10.1558 0.0114508 -4.37814e-22)
(10.1611 0.012049 2.80632e-21)
(10.154 0.0166683 4.33021e-22)
(10.1632 0.0145054 -8.33897e-23)
(10.1585 0.0158282 -1.09645e-22)
(10.1568 0.0125628 0)
(10.1552 0.0122742 -6.00845e-21)
(10.1544 0.00894518 2.24477e-20)
(10.1549 0.00632932 0)
(10.1556 0.00431109 6.96424e-21)
(10.1572 -0.000650316 0)
(10.129 -0.000615689 0)
(10.1351 -0.00352123 2.4027e-21)
(10.132 -0.00246945 -3.65161e-21)
(10.1405 -0.00555848 2.06934e-22)
(10.1444 -0.00711122 1.59669e-21)
(10.1386 -0.0145248 0)
(10.2596 -0.00888355 1.46456e-21)
(10.1558 -0.0112634 1.24334e-21)
(10.1481 -0.00901796 6.00294e-22)
(10.1532 -0.0104021 0)
(9.88877 -0.00620445 1.22844e-21)
(8.86756 -0.000143108 -6.85096e-22)
(9.10584 -0.0298228 4.094e-20)
(9.74107 -0.015006 -2.81311e-20)
(8.78121 0.016007 3.21151e-20)
(10.3336 0.0299727 -9.98494e-22)
(10.0116 -0.00270928 -2.13057e-19)
(10.0142 -0.0198766 5.56086e-20)
(10.0108 -0.0138445 -6.25218e-20)
(10.022 -0.0211837 -8.28356e-20)
(10.0172 -0.00651319 1.88903e-19)
(10.028 -0.0266717 7.34201e-20)
(9.97294 0.0171368 2.76901e-20)
(10.3405 -0.0152698 1.93971e-20)
(10.2798 -0.0294907 -1.82395e-20)
(10.1918 -0.000130296 -1.4693e-21)
(10.2033 0.00179171 -6.07176e-21)
(10.158 0.0114165 -2.76642e-22)
(10.1574 0.0177935 0)
(10.1617 0.0209173 -1.63649e-21)
(10.1652 0.0160296 0)
(10.161 0.0176583 0)
(10.1612 0.00788437 4.34404e-20)
(10.1599 0.0137813 1.09173e-21)
(10.1588 0.0130601 1.87431e-20)
(10.1589 0.00966069 -1.89005e-20)
(10.1589 0.0036902 -6.7381e-21)
(10.1583 -0.00141296 0)
(10.1604 0.000788314 0)
(10.1565 -0.00255342 1.25612e-20)
(10.1319 -0.00168232 -5.35856e-22)
(10.1355 -0.00321049 -7.51763e-21)
(10.1426 -0.00595224 -4.80864e-21)
(10.1462 -0.00745578 -5.1721e-21)
(10.1497 -0.00936023 -7.5192e-22)
(10.1389 -0.019808 0)
(10.2597 -0.0109694 -2.96919e-21)
(10.1589 -0.012231 -1.11918e-21)
(10.1552 -0.0102535 -1.64211e-23)
(9.89171 0.000590793 7.66611e-21)
(8.76558 0.00648341 5.65071e-22)
(8.97733 0.0202258 2.60586e-20)
(10.3267 0.0113254 8.99776e-22)
(10.0008 -0.00197604 -5.61879e-20)
(10.0042 -0.00162241 5.6242e-20)
(10.007 -0.00903331 0)
(10.0193 -0.024619 -2.2762e-20)
(10.0112 -0.0246262 8.56244e-20)
(10.0069 -0.0176191 7.2308e-20)
(10.1498 -0.00528981 0)
(10.1551 -0.0109821 7.01578e-21)
(10.1567 -0.025066 5.61732e-21)
(10.0258 -0.00782165 -2.87983e-21)
(10.0314 -0.0193447 -1.91049e-20)
(10.0242 -0.0120516 4.807e-20)
(10.0341 -0.026946 -6.54053e-21)
(10.0258 -0.0304483 2.77725e-20)
(9.5177 0.0553121 -6.07974e-20)
(10.3523 -0.0333543 -4.64248e-21)
(10.3281 0.00756971 2.73341e-20)
(10.273 -0.00107466 -1.00022e-20)
(10.1691 0.0134011 -1.60456e-22)
(10.1652 0.00724903 1.73136e-21)
(10.1565 0.0225219 -1.28463e-20)
(10.1693 0.0209631 0)
(10.1676 0.0183155 0)
(10.1641 0.0197427 -1.07834e-21)
(10.1639 0.0102033 0)
(10.1635 0.0149997 0)
(10.1629 0.0135802 -6.40154e-21)
(10.1657 0.00202523 0)
(10.1646 0.00461029 -3.14944e-20)
(10.1608 -0.00498941 -7.58856e-20)
(10.1647 -0.00158363 5.13264e-20)
(10.1657 -0.0165321 0)
(10.1735 -0.0339563 1.58569e-20)
(10.1346 -0.0015813 7.96792e-21)
(10.1383 -0.00393376 -4.09923e-22)
(10.1454 -0.00665159 -2.00042e-20)
(10.148 -0.00789034 1.12941e-20)
(10.1514 -0.00974608 2.12637e-22)
(10.1569 -0.0104503 -1.62702e-22)
(10.1441 -0.0206607 8.39578e-22)
(10.2491 -0.0144716 1.05074e-21)
(10.161 -0.011726 -4.70943e-22)
(9.9329 -0.0197254 -1.19518e-20)
(8.57836 0.00817553 1.83989e-20)
(10.0004 -0.00286385 -1.16443e-19)
(10.003 -0.00950285 4.9555e-20)
(10.0163 -0.030812 -2.811e-20)
(10.0092 -0.0286105 1.95101e-21)
(10.0052 -0.020331 -1.38034e-19)
(10.1443 -0.0173775 -1.26295e-20)
(10.1378 -0.00784256 1.07162e-20)
(10.1448 -0.0341534 0)
(10.184 -0.0562424 -3.00869e-20)
(10.1624 -0.0451723 -1.65346e-20)
(10.0401 -0.0164032 1.68838e-22)
(10.0392 -0.0109794 -2.70757e-20)
(10.0414 -0.0308639 -1.92634e-22)
(10.0335 -0.035387 -6.32074e-21)
(10.0237 -0.0376756 -2.9214e-20)
(8.65195 0.0442609 -4.5095e-20)
(9.83377 0.103512 1.30198e-20)
(10.3641 0.0415981 -1.31261e-20)
(10.3117 0.022665 1.22456e-21)
(10.1779 0.0168083 4.54398e-21)
(10.1679 0.0100137 2.79784e-21)
(10.1714 0.00907395 9.22567e-21)
(10.1591 0.0225874 -2.47663e-21)
(10.17 0.0231615 2.72838e-21)
(10.1702 0.0206232 0)
(10.1676 0.0223357 -8.91409e-21)
(10.1674 0.0134661 -1.03059e-20)
(10.1678 0.0161206 0)
(10.1736 0.00194218 -2.22753e-20)
(10.1722 0.00572726 -1.11187e-20)
(10.1733 -0.00329989 4.90738e-20)
(10.1709 -0.00946131 -1.83067e-20)
(10.1811 -0.0231531 -1.12559e-20)
(10.1951 -0.0411644 4.73376e-20)
(10.1379 -0.00203339 -4.81065e-21)
(10.1416 -0.0047511 8.92627e-21)
(10.1632 -0.0128343 2.21967e-21)
(10.1506 -0.0086412 6.59829e-21)
(10.1495 -0.00850858 0)
(10.153 -0.010307 1.78054e-21)
(10.1584 -0.0107139 9.90901e-23)
(10.1539 -0.0103362 0)
(10.1536 -0.017832 -1.82312e-21)
(10.1495 -0.0180282 -1.54279e-21)
(10.2878 -0.00594113 1.34354e-21)
(10.0371 -0.0552421 3.25347e-20)
(10.0008 0.0022668 -1.47029e-20)
(10.0003 -0.00385944 0)
(10.0021 -0.0120286 3.14993e-20)
(10.0142 -0.0363932 -7.01735e-21)
(10.0068 -0.0331613 0)
(10.0036 -0.0233638 1.0493e-20)
(10.2207 -0.0691126 -5.37904e-20)
(10.1206 -0.0105301 -9.98818e-23)
(10.1008 -0.0129383 0)
(10.1302 -0.0240942 -4.81766e-21)
(10.1345 -0.0432713 -1.23101e-21)
(10.0575 -0.0100884 0)
(10.0784 -0.00945847 0)
(10.1675 -0.0701433 1.45749e-20)
(10.148 -0.0552153 -1.32677e-22)
(10.051 -0.0260782 1.04526e-19)
(10.0432 -0.0389014 4.99405e-20)
(10.0332 -0.0448675 1.27561e-20)
(10.0211 -0.0446464 0)
(8.4573 -0.00199322 3.55718e-20)
(9.41743 0.108927 0)
(10.2835 0.0579742 9.75024e-22)
(10.3183 0.0251735 -1.23564e-21)
(10.1959 0.0180922 6.12475e-21)
(10.1722 0.0124949 1.18974e-20)
(10.177 0.0102291 0)
(10.1604 0.0240928 3.7709e-21)
(10.1718 0.0254207 -7.99546e-22)
(10.1732 0.0234651 -3.46072e-21)
(10.1721 0.0251106 -1.67877e-21)
(10.1729 0.0168213 2.00819e-22)
(10.1839 0.00153131 -1.28842e-20)
(10.1807 0.00643224 1.44519e-20)
(10.1855 -0.00516117 1.34003e-20)
(10.1849 -0.0134606 -1.21534e-20)
(10.201 -0.0269635 -4.73968e-20)
(10.228 -0.0455922 3.37421e-24)
(10.1416 -0.00257233 -2.67533e-21)
(10.151 -0.0071711 -2.94854e-20)
(10.1464 -0.00598586 1.85094e-20)
(10.1726 -0.01831 -2.09406e-21)
(10.1648 -0.012914 -6.35101e-22)
(10.1547 -0.0110893 -1.68929e-21)
(10.1566 -0.0118309 0)
(10.1598 -0.0112436 1.30086e-21)
(10.1569 -0.0120217 8.49993e-21)
(10.1589 -0.0128553 0)
(9.66486 -0.0878245 -8.18776e-20)
(9.38429 -0.0906157 1.46989e-20)
(10.1402 -0.00817936 0)
(10.3265 0.00275188 5.27927e-21)
(10.0004 0.00279585 1.4391e-19)
(10.0022 0.00844812 -1.37004e-19)
(10.0046 0.00103964 0)
(10.0003 -0.00456836 -1.95989e-20)
(10.0014 -0.0137745 7.19486e-20)
(10.0115 -0.0425306 5.93806e-21)
(10.0038 -0.0352121 0)
(10.0013 -0.0245279 -1.6568e-19)
(10.2051 -0.0913285 5.37646e-20)
(10.2663 -0.0674219 2.26327e-20)
(10.1189 -0.0326689 -3.55841e-21)
(10.1015 -0.0267223 0)
(10.1186 -0.0514744 4.91968e-21)
(10.0819 -0.0232857 0)
(10.065 -0.0273024 -8.73592e-20)
(10.1471 -0.080371 1.53382e-20)
(10.1315 -0.0602307 3.82542e-21)
(10.0554 -0.0402302 -2.01102e-20)
(10.0446 -0.0518592 -1.17365e-20)
(10.0301 -0.0533112 4.04735e-20)
(10.0165 -0.0520284 -3.83695e-20)
(8.1608 -0.0232045 5.03992e-21)
(9.11399 0.0768956 3.35611e-21)
(9.05081 -0.0678002 6.74242e-21)
(10.2356 0.0382484 -2.24845e-21)
(10.3408 0.0272783 2.03959e-21)
(10.2081 0.0225449 -2.33582e-21)
(10.1787 0.0164821 0)
(10.1848 0.0145583 -1.92852e-20)
(10.1621 0.0273233 -4.46478e-21)
(10.1735 0.0282445 7.46898e-21)
(10.1779 0.0266336 1.48221e-21)
(10.1772 0.0273269 1.09636e-20)
(10.1908 0.0106005 1.92789e-20)
(10.1963 0.00463815 0)
(10.2005 -0.00371323 0)
(10.2024 -0.014334 0)
(10.2291 -0.0241537 0)
(10.2668 -0.0398487 -4.67394e-20)
(10.3058 -0.063422 -7.31536e-20)
(10.1458 -0.00304207 2.6752e-21)
(10.1519 -0.00551636 8.24953e-21)
(10.1666 -0.0137624 2.29599e-21)
(10.1658 -0.0139439 1.74807e-22)
(10.1612 -0.0122735 -1.5625e-21)
(10.1627 -0.0135229 -1.82154e-21)
(10.165 -0.0149071 0)
(10.1587 -0.0117134 0)
(10.1617 -0.0137999 0)
(10.1705 -0.00448169 0)
(10.3663 -0.0137626 4.00102e-20)
(10.2982 -0.0295308 -3.04302e-20)
(10.0006 0.00484464 3.59087e-20)
(10.0023 0.0108677 -2.80463e-20)
(10.0049 0.0140297 -6.97935e-20)
(10.0137 0.00793714 0)
(10.0073 0.0109487 0)
(9.99992 -0.00489729 5.48438e-21)
(10.0009 -0.0153979 4.30901e-20)
(10.0078 -0.0459587 -1.27223e-21)
(10.0001 -0.0396323 -2.96757e-20)
(9.9994 -0.0301308 2.68458e-19)
(10.1824 -0.107193 1.46083e-22)
(10.2518 -0.0954582 4.5597e-20)
(10.3319 -0.104506 -7.18513e-20)
(10.0714 -0.0447502 -6.55467e-20)
(10.1023 -0.0508469 2.08061e-20)
(10.0892 -0.0406314 3.00057e-20)
(10.125 -0.0862477 0)
(10.1146 -0.063141 -1.98955e-21)
(10.0586 -0.0588285 -1.62037e-20)
(10.0414 -0.0623461 -4.4532e-20)
(10.0231 -0.0623729 2.25454e-20)
(10.0111 -0.056872 -1.42444e-20)
(10.3285 -0.0677991 0)
(8.03797 -0.0145029 -4.72682e-21)
(8.96723 0.0593596 2.24427e-21)
(8.8564 -0.0373054 -5.12811e-21)
(10.2084 0.0304266 7.0231e-22)
(10.3521 0.0290944 -6.63453e-22)
(10.2155 0.0307923 0)
(10.1841 0.0284724 0)
(10.1922 0.0277737 1.98072e-20)
(10.1773 0.032142 0)
(10.1638 0.0352924 -7.26544e-23)
(10.1836 0.0299159 -1.439e-21)
(10.201 0.0245148 -1.97957e-20)
(10.2101 0.0182396 0)
(10.2187 0.00815563 0)
(10.2256 -0.0059342 0)
(10.2611 -0.0151316 0)
(10.2944 -0.0339399 3.65555e-20)
(10.3373 -0.0485502 2.1368e-19)
(10.3657 -0.0676025 1.71998e-20)
(10.1492 -0.00212419 0)
(10.1557 -0.00581058 -8.35103e-21)
(10.1675 -0.013182 0)
(10.1667 -0.0146832 5.86736e-21)
(10.1676 -0.0170142 -1.53525e-20)
(10.1681 -0.0192316 4.6974e-21)
(10.1679 -0.0166749 -1.60867e-20)
(10.1627 -0.0123166 2.59788e-21)
(10.1643 -0.013549 0)
(10.167 -0.0177189 2.37503e-20)
(10.1792 -0.0113398 0)
(10.2687 0.0176553 1.6635e-20)
(10.0006 0.00602933 -6.63623e-20)
(10.024 0.00792239 2.01956e-20)
(10.0034 0.0164473 0)
(10.0063 0.0204351 -1.20003e-21)
(10.0114 0.0147329 5.68461e-20)
(9.99982 -0.00454563 0)
(9.99905 -0.014728 -4.79604e-20)
(10.0024 -0.0501861 3.29932e-20)
(9.99526 -0.0388612 0)
(9.99592 -0.0297378 0)
(9.99821 -0.0211516 -1.81982e-21)
(10.1556 -0.117108 -2.41502e-21)
(10.3757 -0.1433 1.00527e-19)
(10.2208 -0.121577 -2.29448e-21)
(10.2941 -0.13221 -7.36767e-20)
(10.105 -0.0877131 5.44232e-20)
(10.0758 -0.0604855 0)
(10.0949 -0.066048 -2.46098e-20)
(10.0558 -0.0714855 0)
(10.0311 -0.0740576 4.9957e-21)
(10.0152 -0.0694489 4.30495e-20)
(10.0038 -0.0620507 -1.71763e-20)
(10.2778 -0.0441633 0)
(7.97167 -0.0143195 2.8002e-21)
(8.87343 0.0583218 -3.64135e-21)
(8.77239 -0.0338376 -7.44906e-22)
(10.1706 0.0247889 9.10005e-22)
(10.3546 0.0321509 1.32651e-21)
(10.2175 0.0455114 5.98928e-22)
(10.2025 0.0342579 2.15715e-20)
(10.1921 0.0326822 -1.04728e-20)
(10.1839 0.0375363 1.25e-21)
(10.1676 0.0486907 -1.34441e-21)
(10.2142 0.0323667 -2.8528e-20)
(10.2268 0.0271702 1.69496e-20)
(10.2517 0.00459876 0)
(10.2397 0.0185422 0)
(10.2847 -0.0071938 -1.3067e-20)
(10.3523 -0.00680769 7.77379e-20)
(10.3228 -0.0104921 0)
(10.3868 -0.0273264 -2.16563e-19)
(10.4095 -0.098186 -1.38923e-19)
(10.1534 -0.00199067 4.58373e-21)
(10.1592 -0.00539338 -2.48197e-21)
(10.1663 -0.0119332 1.79084e-20)
(10.1676 -0.019028 4.06901e-21)
(10.1709 -0.0178559 1.33312e-20)
(10.1709 -0.0223896 -1.93853e-21)
(10.1721 -0.0177083 3.7981e-22)
(10.1683 -0.0143507 -2.20012e-21)
(10.1694 -0.0195292 8.64014e-21)
(10.1625 -0.0250436 0)
(10.243 -0.0113606 -2.50961e-22)
(10.0002 0.00576098 -4.06277e-20)
(10.0016 0.0153464 8.28475e-20)
(10.0388 0.00743848 -2.92971e-20)
(10.0282 0.0195757 -5.33442e-20)
(10.0054 0.0232416 3.26883e-20)
(10.0107 0.0237564 -2.4523e-20)
(10.0205 0.021642 5.21271e-20)
(9.99812 -0.0115155 0)
(9.99964 -0.00369918 0)
(9.99562 -0.0495865 -1.67874e-20)
(9.99021 -0.0373688 -5.57637e-20)
(9.99263 -0.0285453 1.70859e-20)
(9.99557 -0.0198359 1.86169e-21)
(10.1294 -0.120858 -1.73397e-20)
(10.4297 -0.194636 -1.73245e-19)
(10.1871 -0.141312 -4.57751e-21)
(10.3358 -0.183464 2.64198e-20)
(10.2546 -0.170499 3.00049e-20)
(10.0896 -0.0917748 -4.40443e-20)
(10.0717 -0.0773553 -1.30881e-20)
(10.106 -0.120145 2.43696e-20)
(10.0438 -0.0869669 -7.26044e-20)
(10.0215 -0.0847373 0)
(10.0054 -0.0762385 -1.3416e-20)
(9.99427 -0.0625238 -3.59169e-21)
(10.3034 -0.0456939 5.30963e-22)
(7.93226 -0.0224709 0)
(8.78227 0.0615702 1.09906e-21)
(8.69503 -0.0299748 0)
(10.1348 0.0194125 -1.38054e-21)
(10.3541 0.036524 -6.07858e-22)
(10.2088 0.0612135 1.07648e-22)
(10.2077 0.0498852 0)
(10.1941 0.0439229 8.86662e-22)
(10.1761 0.0610184 1.56039e-20)
(10.2255 0.0439582 0)
(10.2399 0.0380281 3.35836e-20)
(10.2713 0.0133137 -4.37189e-21)
(10.256 0.0289793 -3.86605e-20)
(10.3098 0.00231988 -2.53047e-21)
(10.3587 0.0308331 9.61988e-20)
(10.3963 0.00754395 -4.42893e-20)
(10.4345 -0.0478848 1.61708e-19)
(10.4674 -0.138503 3.97934e-20)
(10.157 -0.00187152 0)
(10.1639 -0.00511576 0)
(10.1708 -0.0110222 -2.43169e-20)
(10.1725 -0.0147177 6.48404e-22)
(10.1684 -0.023122 -9.37733e-21)
(10.1722 -0.0205539 0)
(10.1739 -0.0264457 -2.40574e-21)
(10.1747 -0.0191559 -3.81617e-21)
(10.1736 -0.0203869 3.51965e-21)
(10.169 -0.0270899 4.29863e-21)
(10.2608 -0.0136606 1.01489e-22)
(10.0001 0.00434247 3.33698e-20)
(10.0004 0.013124 8.37294e-20)
(10.0018 0.0206624 -1.22441e-19)
(10.0037 0.0245464 -4.44015e-20)
(10.057 0.00733671 0)
(10.0413 0.0194805 3.41629e-20)
(10.0335 0.0301871 -4.12024e-20)
(10.0089 0.0290997 -1.43166e-20)
(10.0168 0.0302424 0)
(10.0272 0.0310995 -8.76688e-20)
(10.0774 0.00695244 -4.24814e-21)
(9.99704 -0.00801765 5.01699e-20)
(9.99954 -0.00228632 0)
(9.99985 0.00370284 0)
(9.98793 -0.0473227 -2.07499e-20)
(9.98541 -0.0315891 4.39635e-20)
(9.99237 -0.0154221 -5.40687e-20)
(9.98822 -0.0235146 0)
(10.1493 -0.155348 -2.81333e-22)
(10.3836 -0.243808 1.49853e-20)
(10.2114 -0.194256 5.89899e-21)
(10.2897 -0.220187 3.10458e-22)
(10.0817 -0.115746 3.31784e-20)
(10.0606 -0.0989321 5.99598e-20)
(10.1122 -0.160305 0)
(9.98325 -0.0602445 4.40732e-20)
(10.0332 -0.103703 -7.78806e-22)
(10.0094 -0.0952437 0)
(9.99234 -0.0781898 -1.65819e-20)
(10.2869 -0.0421612 -9.9185e-23)
(7.90013 -0.0266531 4.38092e-22)
(8.69856 0.0680705 -6.75316e-22)
(8.64883 -0.0269152 -1.28277e-21)
(10.2081 0.0708784 0)
(10.1219 0.00704181 1.06587e-22)
(10.3478 0.0396382 -1.68271e-22)
(10.2062 0.0673014 -2.32024e-20)
(10.1901 0.0704548 3.65362e-21)
(10.2487 0.0628209 -7.63056e-21)
(10.2332 0.0613096 2.83338e-20)
(10.2906 0.0373749 -5.48137e-20)
(10.3239 0.0460142 -1.00509e-19)
(10.2711 0.0408165 7.15757e-20)
(10.3827 0.0484045 0)
(10.4462 0.00868732 9.69407e-20)
(10.496 -0.0760162 0)
(10.1591 -0.00160688 4.32215e-21)
(10.1714 -0.00411526 4.46506e-20)
(10.1755 -0.00927154 0)
(10.1774 -0.0143944 -3.76986e-22)
(10.1783 -0.0210449 -1.05027e-20)
(10.1698 -0.0293994 0)
(10.1746 -0.0226148 0)
(10.1776 -0.0295741 -3.5267e-22)
(10.1794 -0.0213333 1.01778e-20)
(10.1701 -0.0342293 1.09044e-21)
(10.2637 -0.0191969 -1.02294e-21)
(10.1563 0.000498402 -5.25888e-21)
(10.1517 0.00160343 0)
(9.99937 0.0130885 1.34771e-20)
(9.99925 0.0213934 0)
(10.0029 0.0287726 4.66402e-20)
(10.0068 0.0324834 1.43572e-20)
(10.0576 0.0203722 0)
(10.0442 0.0315116 5.73282e-20)
(10.0346 0.0369021 3.78331e-21)
(10.0144 0.0367301 0)
(10.0243 0.0380317 0)
(10.0758 0.021914 -4.526e-22)
(10.0983 0.00594289 -4.09009e-21)
(10.1178 0.00349107 0)
(10.1334 0.000152902 4.65638e-20)
(10.1468 0.00504503 -4.61203e-20)
(9.99927 0.000643338 0)
(9.99572 -0.00261335 0)
(9.99966 0.00199745 0)
(9.99823 0.0115387 0)
(9.9716 -0.0514677 -2.15867e-20)
(9.98002 -0.039529 5.48703e-20)
(9.98184 -0.0249555 0)
(9.98895 -0.00927094 5.35146e-20)
(10.1641 -0.213938 2.06783e-20)
(10.3307 -0.287306 2.31949e-20)
(10.2387 -0.25195 -2.11961e-20)
(10.0514 -0.123416 2.8351e-21)
(10.0774 -0.139386 -6.30566e-22)
(10.0969 -0.191834 1.04676e-20)
(10.1189 -0.229942 -3.66905e-20)
(9.96074 -0.065584 0)
(9.97673 -0.0760367 -2.64706e-21)
(10.0186 -0.118605 0)
(9.99122 -0.0998418 0)
(10.3061 -0.0435597 0)
(8.60748 0.0737824 -1.72313e-22)
(7.85603 -0.0309199 -2.27309e-22)
(8.71537 -0.039452 -1.0177e-20)
(10.3331 0.0514121 0)
(10.1662 -0.00309591 -4.15762e-21)
(10.2187 0.0956957 -3.99109e-21)
(10.2414 0.0727542 -1.39901e-20)
(10.3203 0.0856119 0)
(10.2789 0.0802009 0)
(10.3615 0.0806274 -3.89794e-20)
(10.4432 0.064311 4.5673e-21)
(10.5129 -0.00724632 2.4741e-20)
(10.1693 0.000870054 -5.33609e-20)
(10.1803 -0.00708397 0)
(10.183 -0.0128371 1.44453e-20)
(10.1842 -0.0208487 3.78012e-22)
(10.1848 -0.0230851 1.82843e-21)
(10.1726 -0.036752 -1.15367e-21)
(10.1786 -0.025539 1.52555e-21)
(10.1826 -0.0324656 0)
(10.2663 -0.0251342 2.92956e-22)
(10.172 -0.0416362 -7.20844e-22)
(10.1568 0.0133447 2.2304e-20)
(10.1669 0.0052283 8.72779e-21)
(10.1612 0.00984547 -2.84223e-21)
(9.99798 0.0212397 1.64186e-20)
(9.99972 0.0292948 -3.19317e-20)
(10.005 0.0372197 -1.61253e-20)
(10.0118 0.0417025 1.36779e-20)
(10.0586 0.0335564 0)
(10.0451 0.0409633 2.21299e-20)
(10.0334 0.0450266 -3.57904e-21)
(10.0219 0.045667 1.12442e-21)
(10.0746 0.0364142 -1.72791e-20)
(10.0962 0.0270845 1.47483e-20)
(10.0917 0.0378131 -7.62881e-21)
(10.1582 0.022794 1.35625e-20)
(10.1155 0.0254714 -1.18233e-23)
(10.1475 0.0238614 -1.15719e-21)
(10.1332 0.0238484 4.0706e-21)
(9.99665 0.00852381 0)
(9.99262 0.00362672 0)
(9.99564 0.0196125 6.10837e-20)
(9.98541 0.00243586 -1.07266e-19)
(9.96077 -0.0417353 -5.68213e-20)
(9.97242 -0.0311415 2.55089e-20)
(9.98089 -0.012536 1.70539e-20)
(9.94677 -0.0509488 0)
(10.1844 -0.27624 0)
(10.2717 -0.324598 1.50435e-20)
(10.0367 -0.155621 -2.35334e-20)
(10.0557 -0.210088 3.15715e-20)
(10.0613 -0.168781 3.07791e-20)
(10.0653 -0.248085 -1.58362e-20)
(10.1285 -0.29354 6.14836e-21)
(9.96895 -0.0962878 -4.44833e-20)
(9.94791 -0.0813678 5.29461e-20)
(9.99176 -0.129635 -3.86128e-20)
(10.3892 -0.0544025 2.73544e-21)
(8.51382 0.103514 9.00685e-21)
(7.78544 -0.0326905 -4.77338e-20)
(8.72379 -0.0980907 -5.95262e-21)
(10.3602 0.0608932 1.68164e-20)
(10.2567 0.0168141 -1.83125e-20)
(10.2521 0.108543 4.19682e-20)
(10.263 0.0819259 -2.31976e-20)
(10.3417 0.118032 1.84065e-19)
(10.4263 0.118266 3.1158e-19)
(10.5174 0.0634012 -2.3549e-19)
(10.1814 -0.00176108 0)
(10.1886 -0.00958011 -3.02943e-20)
(10.1911 -0.0191088 -1.08979e-22)
(10.1918 -0.0239261 -1.18451e-20)
(10.1893 -0.0342182 1.18724e-21)
(10.1782 -0.0446744 3.86132e-22)
(10.1845 -0.0294257 5.85163e-22)
(10.2331 -0.0325634 -3.02684e-22)
(10.1693 -0.0499278 0)
(10.1672 0.0145992 0)
(10.1816 0.00471296 0)
(9.99304 0.0283351 1.01955e-19)
(9.99684 0.0297951 -1.68164e-20)
(10.001 0.0385778 4.98594e-20)
(10.0089 0.0477076 0)
(10.0193 0.0526443 -4.35536e-20)
(10.059 0.0454558 -6.47663e-21)
(10.0451 0.0510342 -1.45654e-21)
(10.0316 0.054691 1.48469e-20)
(10.0744 0.04847 1.10193e-20)
(10.0909 0.0553907 1.72286e-20)
(10.1066 0.0473746 -6.09819e-21)
(10.1684 0.023969 5.95006e-21)
(10.1638 0.0307931 1.44341e-20)
(10.1218 0.0443109 1.16991e-21)
(10.1538 0.0350651 -2.50928e-21)
(10.1395 0.0399786 -1.30614e-20)
(9.99258 0.016495 5.81421e-20)
(9.98735 0.0117323 7.49436e-20)
(9.98909 0.0248711 -2.21181e-19)
(9.97703 0.000854429 -1.78272e-20)
(9.93091 -0.0667614 1.64563e-20)
(9.95032 -0.0236323 -2.77487e-19)
(9.96442 -0.0122865 8.90467e-20)
(9.9341 -0.0260408 0)
(9.98672 0.0317076 4.49151e-20)
(10.2074 -0.35311 -3.24537e-21)
(9.99985 -0.171009 0)
(10.0114 -0.202576 6.75154e-20)
(10.0204 -0.249374 -3.91909e-20)
(10.0698 -0.303681 0)
(10.1383 -0.371494 -4.24381e-21)
(9.94632 -0.16217 -9.44544e-20)
(9.95314 -0.129253 3.23194e-20)
(9.92724 -0.119698 -1.34335e-19)
(10.4166 -0.0956165 7.50924e-21)
(8.32329 0.223345 3.30589e-21)
(7.7836 -0.0421693 2.99263e-19)
(8.3189 -0.228065 -1.7042e-19)
(10.3275 0.149783 -1.76331e-21)
(10.2874 0.143083 -1.60304e-19)
(10.3539 0.148163 8.14841e-20)
(10.3953 0.167499 -1.84385e-19)
(10.5062 0.136361 -7.75539e-21)
(10.1937 -0.00418907 1.59478e-20)
(10.1984 -0.015016 -3.4112e-23)
(10.2007 -0.0227375 1.69366e-20)
(10.1986 -0.0345234 -1.12461e-21)
(10.185 -0.0540407 -7.5152e-22)
(10.1927 -0.0333157 1.85173e-21)
(10.2111 -0.0519787 1.66391e-22)
(10.1762 -0.0604689 2.00258e-20)
(10.1818 0.013309 0)
(10.1974 0.00374191 -1.8203e-20)
(9.99125 0.0370838 -3.71868e-20)
(9.9965 0.0391304 -3.33136e-20)
(10.0037 0.0512515 0)
(10.0162 0.0614267 -2.77865e-20)
(10.0295 0.0631349 1.5867e-20)
(10.0593 0.0565634 6.22826e-21)
(10.0439 0.0635527 0)
(10.0759 0.0615505 -3.11106e-21)
(10.0945 0.0631576 -1.73642e-21)
(10.1133 0.0627313 4.44079e-21)
(10.1812 0.0243733 -1.03935e-20)
(10.1751 0.0349709 0)
(10.1314 0.0589188 -5.25791e-22)
(10.1642 0.044728 -1.05508e-21)
(10.1492 0.0525908 -7.20036e-21)
(9.9791 0.0114765 -3.24786e-20)
(9.98208 0.0238829 0)