/*--------------------------------*- C++ -*----------------------------------*\
  =========                 |
  \\      /  F ield         | OpenFOAM: The Open Source CFD Toolbox
   \\    /   O peration     | Website:  https://openfoam.org
    \\  /    A nd           | Version:  8
     \\/     M anipulation  |
\*---------------------------------------------------------------------------*/
FoamFile
{
    version     2.0;
    format      ascii;
    class       volScalarField;
    location    "0.032";
    object      p;
}
// * * * * * * * * * * * * * * * * * * * * * * * * * * * * * * * * * * * * * //

dimensions      [0 2 -2 0 0 0 0];

internalField   nonuniform List<scalar> 
424
(
-2.72897e-06
0.0552664
0.0135766
0.117195
0.0958449
0.247639
0.10152
0.0538227
0.27748
0.495314
0.477696
0.490504
0.0104166
-0.151258
0.507879
0.749572
0.507844
0.513476
-0.422248
-0.184761
0.748989
1.00226
0.672544
0.673257
-0.674468
-0.436877
-0.380149
-0.39547
0.988187
1.26921
1.47483
1.53751
0.850058
0.848143
-3.5217
-0.889299
-1.11159
-1.38858
-0.677179
-0.412378
-0.417499
1.23514
1.42868
1.52473
1.41546
1.00693
1.00457
-2.88791
-2.65199
-0.887579
-1.12256
-1.18043
-0.577078
-0.578288
1.43287
1.47097
1.02632
1.02255
-2.27006
-1.12776
-0.759942
-0.75764
1.51818
1.67543
-1.05281
-0.622284
-0.946889
-0.945863
1.92516
1.70867
-0.0211079
-0.5996
-1.01373
-1.03795
2.18141
1.93756
1.8971
1.91023
0.72783
0.0080628
4.37563
2.4038
1.47336
2.10442
2.68246
5.254
2.88457
2.61688
2.1792
1.94251
1.94821
0.733228
-0.386314
3.94753
2.39713
1.45891
2.08209
2.56916
4.53554
2.6406
2.62683
2.10472
2.10545
-0.162906
-0.412104
2.29258
2.29014
0.392795
-0.163272
2.48805
2.49274
0.978713
0.392229
2.57584
2.60666
1.5602
0.977677
1.82101
1.55531
1.83912
0.130792
0.0403852
0.0477973
0.0781245
0.094138
0.165675
-0.0274778
0.0102647
0.224053
0.317449
0.332708
0.15111
0.177358
0.21875
0.335642
0.303421
0.294707
0.4448
0.460487
0.445904
0.0646726
-0.000540815
0.0698991
0.035809
-0.0167315
-0.06272
-0.0407236
-0.160806
-0.0822422
-0.188899
0.000474951
0.0448947
0.0693347
0.114197
0.305063
0.169849
0.363191
0.35324
0.490078
0.511109
0.583547
0.512938
0.598724
-0.0317211
-0.033847
-0.185999
-0.203244
-0.232152
-0.267055
-0.271652
-0.0488169
-0.28134
-0.0949261
-0.232602
0.642788
0.638788
0.750809
0.783148
0.678846
0.784234
-0.294004
-0.281969
-0.439384
-0.338951
-0.401378
-0.380552
-0.348965
0.88562
0.885065
0.985686
0.958394
1.05263
0.853673
0.943839
-0.546978
-0.67259
-0.503732
-0.555084
-0.419902
-0.515308
1.13564
1.15042
1.20717
1.21751
1.27442
1.22126
1.10965
1.18332
1.00493
1.08293
-0.789208
-0.883954
-0.69658
-0.777342
-0.58322
-0.700794
1.32541
1.30426
1.31719
1.3548
1.40135
1.38528
1.38175
1.38587
1.39054
1.49699
1.49976
1.44971
1.18513
1.27114
1.03935
1.18586
1.35393
1.38452
1.45399
-1.26554
-1.65519
-2.50222
-2.08894
-1.01858
-1.11746
-1.23142
-1.01902
-0.86877
-0.936195
-0.764635
-0.870563
-1.14737
-1.25539
1.50151
1.44738
1.45818
1.45255
1.51753
1.4576
1.46854
1.51769
1.5625
1.58817
1.68653
1.34039
1.43553
1.51197
1.49502
1.13959
1.26363
-1.48809
-1.41921
-1.63601
-1.23514
-1.08103
-1.10446
-1.14953
-1.00696
-1.07117
-0.94318
-1.01994
-0.855068
-1.19535
-1.10127
-1.0744
-1.11824
-1.22133
1.56609
1.62269
1.69852
1.55635
1.73515
1.73017
1.7617
1.78483
1.56441
1.77303
1.61184
1.73718
-0.819124
-0.723707
-0.942165
-0.594831
-0.698882
-0.564824
-1.09679
-1.10598
-0.74667
-0.756943
-1.02426
-1.12747
-1.03862
-1.07767
-1.2416
-1.17237
-1.05154
-0.753512
1.77573
1.7897
1.94059
1.86824
1.91276
1.88501
1.87229
-0.395959
-0.399678
0.026778
-0.35723
-0.0571056
-0.411441
-0.3451
-1.40109
-1.31482
-1.08265
-1.21483
-1.15706
-1.51157
-1.48629
-1.19831
2.06669
2.18161
2.0152
2.06464
1.94631
2.02956
0.311058
0.737687
0.073684
0.327108
-0.160677
0.145001
-1.13378
3.7139
4.0659
2.31309
2.39248
2.18859
2.3106
2.11106
2.20089
1.14609
1.45171
0.80558
1.13668
0.416997
0.792006
2.57794
3.13364
2.53364
2.62113
1.88854
2.07533
2.3737
2.73805
3.01038
2.74758
3.21681
2.64959
2.524
2.40072
2.47257
2.29161
2.39303
1.90351
1.43989
1.52848
0.981007
1.35499
2.28303
2.92093
2.65899
2.62038
2.17851
2.20422
2.79769
2.6794
2.70103
2.67875
2.58135
2.596
2.47899
2.58918
1.79095
2.03722
1.56895
1.77145
2.39703
2.65456
2.62657
2.64331
2.15762
2.35935
2.76846
2.6341
2.67439
2.59467
2.66928
1.84391
2.12216
2.62656
2.97688
2.8877
2.53031
2.5659
3.0958
3.05828
2.63715
2.55723
)
;

boundaryField
{
    movingWall
    {
        type            zeroGradient;
    }
    fixedWalls
    {
        type            zeroGradient;
    }
    frontAndBack
    {
        type            empty;
    }
    defaultFaces
    {
        type            empty;
    }
}


// ************************************************************************* //
