/*--------------------------------*- C++ -*----------------------------------*\
  =========                 |
  \\      /  F ield         | OpenFOAM: The Open Source CFD Toolbox
   \\    /   O peration     | Website:  https://openfoam.org
    \\  /    A nd           | Version:  8
     \\/     M anipulation  |
\*---------------------------------------------------------------------------*/
FoamFile
{
    version     2.0;
    format      ascii;
    class       surfaceScalarField;
    location    "0.031";
    object      phi;
}
// * * * * * * * * * * * * * * * * * * * * * * * * * * * * * * * * * * * * * //

dimensions      [0 3 -1 0 0 0 0];

internalField   nonuniform List<scalar> 
1107
(
0.000315985
-0.000643371
0.000633486
-0.000306101
0.000616967
-0.000300982
-2.96746e-05
0.000646642
0.000304972
0.000538564
-0.00010665
-0.000736885
-0.000968663
0.000630263
-9.75904e-05
0.000701402
0.000286065
-5.36026e-05
-1.49168e-05
-3.72453e-05
0.000683887
-3.30939e-05
1.43626e-05
-8.79191e-05
0.000180734
-0.000148767
-6.506e-05
0.000300278
-0.000856429
-0.00126755
0.000599164
-0.000207278
0.000739952
0.0007608
-9.66431e-05
4.16668e-05
0.000814592
-9.54587e-05
3.58403e-06
-4.2824e-05
-1.13328e-05
0.000725554
0.000852576
2.98745e-05
-6.78593e-05
6.44893e-05
-0.000126784
-8.64725e-05
2.51552e-05
-4.85849e-05
0.000227263
-0.0001406
-0.000213447
0.000277793
-0.00011559
0.000296534
-0.00087517
-0.00151032
0.000539304
-0.000366083
0.000757969
0.00082839
-0.000185081
0.000898529
-0.000165598
5.21699e-06
-2.28858e-05
-6.11583e-06
-2.21296e-05
0.00086443
1.02762e-05
0.000755428
0.00094511
-0.000114441
0.000962141
-3.91601e-05
0.000950467
-2.39295e-05
3.56035e-05
3.53727e-05
-7.26889e-05
-4.91563e-05
1.36101e-05
-2.68223e-05
-8.22968e-05
-0.000130992
0.000321915
-0.000214883
-0.000320479
0.000397034
-0.000190709
0.000306598
-0.000784734
0.00045952
-0.00166324
-0.000569551
0.000742773
0.000880154
-0.000307267
0.000967158
-0.000252602
2.99541e-06
-1.22712e-05
-3.12042e-06
8.78915e-05
0.000915672
-5.30973e-05
0.000852825
-1.23252e-05
0.000765705
0.00102418
-0.000171467
0.00104807
-6.30453e-05
0.00103713
4.65454e-05
0.000997192
0.000127828
-0.000117953
0.000931173
0.000183972
5.73693e-05
-0.000104042
-3.56238e-05
2.75672e-05
-1.93542e-05
1.04007e-05
-9.6558e-06
-0.000129563
-0.000216313
-6.18383e-05
-0.000171767
0.00069023
-0.000800261
0.000901075
-0.000465569
0.00100875
-0.000360274
2.2056e-06
-4.07605e-06
-9.14819e-07
0.000864766
-6.70464e-05
0.000823375
-2.36469e-05
0.000753379
0.000821841
-0.000146821
0.000256154
0.0010764
-0.000239123
0.00110673
-9.33712e-05
0.00109824
5.50373e-05
0.00105455
0.000171513
0.000971692
0.000266831
4.55861e-05
-3.0589e-05
-7.68354e-05
2.44115e-05
-1.44492e-05
1.14565e-05
-6.39914e-06
4.27615e-06
-2.4755e-06
0.000875249
-0.000650587
0.00100189
-0.000486911
8.82184e-07
-6.8208e-07
-3.26361e-08
0.000333248
0.00066948
-0.000180888
0.000790082
-7.21375e-05
0.000785217
-2.8888e-05
0.000729732
0.000825442
0.000402403
0.000621677
0.000537014
0.000387833
-0.00129444
0.00152829
0.00107953
-0.00031677
0.00111824
-0.000132073
0.00111675
5.65206e-05
0.00107194
0.00021633
0.000970722
0.000368045
-3.57961e-05
-5.56812e-05
6.08883e-05
-1.92402e-05
-3.10051e-05
-9.08423e-06
-1.65551e-05
-3.37869e-06
-8.18104e-06
-6.70695e-07
-3.39007e-06
-7.03336e-07
0.00098908
0.000344453
-0.0009457
0.000371303
-0.000996268
0.000687786
-7.85923e-05
0.000738874
-2.57953e-05
0.000700844
0.000790493
0.000582633
0.000545787
0.000781719
0.000410917
0.00166316
0.000481664
0.000918333
-5.75415e-05
-9.50159e-05
9.68762e-05
-3.11632e-05
-5.73833e-05
-1.47139e-05
-3.30044e-05
-5.44874e-06
-1.74462e-05
-1.09132e-06
-7.74749e-06
-1.79466e-06
0.000103157
0.000298938
-5.76415e-05
0.000227251
-0.000801647
0.000357727
-0.000666209
0.000680769
-2.04874e-05
0.000675049
0.000413086
0.000171734
-4.40698e-05
-0.000124503
7.35569e-05
-2.42389e-05
-7.72142e-05
-1.16696e-05
-4.55737e-05
-4.44179e-06
-2.46739e-05
-9.6388e-07
-1.12254e-05
-2.75854e-06
0.000247684
0.000200705
-0.000149452
0.000200328
-3.0719e-05
0.000135977
-0.000579897
0.000342972
-0.000328411
0.000654562
0.000294138
0.000366633
-1.42627e-05
-0.000133014
2.27731e-05
-8.09953e-06
-8.33773e-05
-4.01577e-06
-4.96575e-05
-1.61465e-06
-2.70751e-05
-3.95573e-07
-1.24445e-05
-3.15411e-06
0.00015003
0.000134251
-8.35756e-05
0.000127746
-7.68694e-05
0.000120451
-1.51938e-05
6.99007e-05
-0.000306825
0.00032615
0.00019842
0.000245748
1.42583e-05
-0.000121197
-2.60749e-05
7.25855e-06
-7.63775e-05
3.24072e-06
-4.56396e-05
1.14551e-06
-2.49799e-05
1.85761e-07
-1.14847e-05
-2.96835e-06
0.000128598
7.72959e-05
-7.16424e-05
8.46386e-05
-4.04685e-05
7.3462e-05
-2.988e-05
5.91116e-05
-4.40465e-06
1.93251e-05
0.000117452
0.000209566
-8.73292e-05
5.88118e-05
0.000145969
1.63968e-05
-3.59479e-05
-0.000101646
7.68365e-06
-6.76643e-05
3.29215e-06
-4.12482e-05
1.18797e-06
-2.28757e-05
2.29081e-07
-1.05259e-05
-2.73927e-06
3.77848e-05
-4.78181e-05
4.76635e-05
-3.46673e-05
4.83137e-05
-1.53203e-05
3.5093e-05
-5.8614e-06
1.49205e-05
-5.07223e-05
2.3931e-05
8.56031e-05
-3.12886e-05
5.65935e-05
-6.6553e-05
-1.23291e-05
-4.18352e-05
-2.76571e-06
-2.00892e-05
-5.50496e-06
1.45279e-05
-2.74653e-05
2.27187e-05
-2.28733e-05
2.67145e-05
-1.3068e-05
2.28591e-05
-3.08639e-06
9.05906e-06
5.5027e-06
-2.49804e-05
4.34087e-05
-2.22894e-06
6.72061e-06
7.1539e-06
-1.16456e-05
-1.27304e-05
5.49378e-05
-6.22967e-05
-1.82353e-05
-1.20303e-06
-8.10108e-06
1.48068e-05
2.75008e-06
-1.32026e-05
8.25405e-06
-1.30007e-05
1.24372e-05
-8.596e-06
1.24821e-05
-2.69112e-06
5.97267e-06
1.17957e-06
4.08388e-06
-7.49239e-06
-6.25513e-07
3.29178e-06
4.05431e-06
-1.88187e-06
8.22566e-06
-1.63566e-05
1.00128e-05
-2.54105e-06
-6.54763e-07
1.99279e-06
-1.30104e-06
-4.04995e-06
1.17699e-06
-6.1255e-06
4.27904e-06
-4.84256e-06
5.69769e-06
-1.81154e-06
3.28154e-06
2.99464e-06
1.57328e-06
-3.38835e-06
1.40618e-06
2.05216e-06
2.49686e-08
1.38495e-06
-7.57933e-07
2.95632e-06
6.02728e-06
-2.61604e-06
4.68272e-06
-2.32589e-05
2.11922e-05
-1.84453e-06
1.78218e-06
-2.4787e-06
-1.87403e-06
-8.17518e-08
-1.10346e-06
-1.7695e-06
4.03331e-07
-2.24978e-06
1.86658e-06
-1.01145e-06
1.47001e-06
3.3491e-06
-2.69346e-07
-8.51094e-08
2.32068e-06
6.58811e-07
1.16357e-06
9.13566e-07
1.86745e-07
4.40271e-07
-2.07346e-07
5.4764e-07
-5.6791e-07
5.25064e-06
-1.04999e-06
1.49347e-06
-2.28801e-06
-1.21094e-06
1.11911e-06
-1.26089e-06
7.56813e-08
-7.6048e-07
-6.05688e-07
8.25017e-08
-4.65703e-07
4.58554e-07
2.38094e-06
-1.9897e-06
2.95786e-06
2.33813e-06
-2.8674e-07
1.58842e-06
2.3397e-07
7.81626e-07
3.18689e-07
1.54745e-07
7.81829e-08
-2.02654e-08
-1.44759e-06
-8.12575e-07
1.21017e-06
-5.80725e-07
8.63247e-07
-7.34168e-07
5.92397e-07
-7.51945e-07
6.71481e-08
-4.10969e-07
-1.12216e-07
-7.14852e-09
1.33317e-06
-1.79675e-06
2.84452e-06
1.53229e-06
-1.18383e-06
1.49274e-06
-1.91058e-07
9.55877e-07
5.97225e-08
4.13476e-07
5.99621e-08
5.79197e-08
-2.10674e-06
-1.1889e-06
1.84805e-06
-9.07122e-07
-4.8619e-07
-2.9992e-07
4.28998e-07
-4.00515e-07
2.40967e-07
-3.6791e-07
2.40897e-08
-1.19363e-07
1.8897e-06
1.11055e-06
-1.66707e-06
7.50403e-07
-1.01485e-06
9.08936e-07
-6.00032e-07
8.54261e-07
-8.94412e-08
4.68567e-07
4.63625e-09
1.17882e-07
-2.50911e-06
-6.54599e-07
1.05696e-06
-1.40434e-06
-6.91689e-07
-5.33117e-07
-2.52996e-07
-1.37707e-07
1.66189e-07
-1.80851e-07
5.39091e-08
-9.52722e-08
-2.44677e-06
1.28669e-07
-1.91004e-07
1.09091e-06
-1.64799e-06
1.19492e-06
6.66033e-07
3.91621e-07
-4.97542e-07
4.88677e-07
-2.34447e-07
4.02871e-07
-2.37444e-08
1.22518e-07
-1.68673e-06
-3.72205e-07
-8.76729e-07
-3.48079e-07
-2.86307e-07
-1.04399e-07
-4.91952e-08
3.45314e-08
-4.13637e-08
-1.63831e-06
8.02413e-08
6.47529e-07
7.10559e-07
3.47095e-07
1.82296e-07
-1.91161e-07
2.18341e-07
-4.99159e-08
9.87726e-08
-1.06361e-06
-1.85325e-07
-4.97002e-07
-1.37385e-07
-1.29276e-07
-2.432e-08
-6.83414e-09
-1.027e-06
4.36286e-08
3.3109e-07
3.86146e-07
1.43244e-07
6.64307e-08
-3.92507e-08
4.88566e-08
-6.08623e-07
-7.37053e-08
-2.35725e-07
-3.09373e-08
-3.11547e-08
-5.84508e-07
1.9513e-08
1.32729e-07
1.76192e-07
3.34826e-08
9.60676e-09
-2.92159e-07
-1.72722e-08
-6.20923e-08
-2.78294e-07
5.6482e-09
3.06269e-08
4.30896e-08
-7.9365e-08
-7.37166e-08
0.000596793
-0.00138153
-0.00106645
0.000322369
-0.000538682
0.000859467
-0.000537097
0.000538988
0.00130351
-0.000764521
0.0011128
-0.000268727
0.00156852
-0.00183725
0.000502073
-0.000298188
-0.00139205
0.000627534
0.000138947
-0.000310713
-0.000399735
4.43693e-05
-0.000121205
-0.000266344
0.000329629
-0.000729365
0.00117367
-0.000844038
0.00063657
-0.000755485
0.0020698
-0.00144227
0.000232554
0.0013059
-0.00107335
0.00100772
0.000357129
0.00101385
-0.00176934
-0.000428415
-6.03164e-05
0.000229511
-0.000289828
-3.68323e-05
-0.000766197
-6.84159e-05
-0.000697781
0.00136564
-0.00143405
0.000521599
-0.00124774
0.00141859
-0.001847
0.000345236
0.000881603
-0.000536367
-0.00123873
0.00075182
-0.0013683
0.00105153
-0.000616478
0.000975331
-0.00222307
-0.00087167
0.000858116
0.000805042
0.00177645
-0.000409013
0.000991647
-0.00147748
0.0013454
-0.00042595
-0.00115121
0.000742196
-0.000783164
-0.00130919
0.00136571
3.62115e-05
-0.00127977
0.000496611
-0.00106344
0.000302269
-0.000192952
0.000131295
-0.000324246
-0.000566486
0.000276671
-0.000843158
-0.00115738
0.000192714
-0.0013501
-0.00203036
0.00112439
-0.00199606
-0.000588019
-2.84586e-05
-0.000645736
0.000219786
-0.000674195
-4.14272e-05
-0.00198893
-0.00203748
-0.000893101
0.00169814
-0.000111382
0.000880265
0.000286969
0.00148948
0.00198511
0.00166122
-1.16095e-05
0.000891874
-0.000993075
0.000981466
-0.00025088
-0.000553462
0.000589674
-0.000333676
-0.000943795
0.000692916
-0.000447185
-0.000772818
0.000325633
-0.000470549
0.000119125
-0.00025069
7.93547e-05
-0.000330044
-0.000763803
3.13825e-05
-0.000795186
-0.00131871
-0.000355325
-0.000963388
-0.00234426
0.000906831
-0.00124051
0.000232636
-0.00180485
-0.00144537
0.000204866
0.000926779
-0.00273163
-0.00141748
0.000553312
0.0014318
0.00144519
-0.000998983
0.00136562
0.000662232
0.00209403
0.000118877
0.00132631
0.00110034
7.10176e-05
0.00102933
0.000763933
0.000256747
0.000507187
0.00058238
0.000701504
-0.000743869
-0.000307271
8.40605e-06
-0.000315677
-0.00078678
-0.000349033
-0.000437747
-0.00131242
-0.000425191
-0.00088723
-0.00184267
0.0020195
-0.00181463
-0.000712129
0.00173342
-0.00247729
-8.121e-05
0.00128101
-0.00199314
-0.000561659
-0.000606434
0.000852182
0.000759182
-0.00118968
0.00194886
0.000904351
0.00223066
0.00142817
0.000802491
0.00245749
0.00296468
-0.000633877
0.00203677
-0.00140289
0.00311117
-0.000146485
-0.000341752
0.000560072
-0.00112173
-9.44812e-05
-0.000247271
-0.000532228
-0.000119735
-0.000412493
-0.00100696
-0.000446892
0.00179704
0.000239722
-0.00171583
-0.000277304
-0.000715247
0.000954969
-0.000963548
-0.000158183
0.000642728
-0.000920032
-0.00032082
-0.00115401
0.000438762
-0.00031711
0.000526676
0.000535072
2.44203e-05
-0.000589793
0.000565372
-0.00112959
-0.000120277
0.000340389
-0.000220112
-0.000710069
-0.000681584
0.00121666
0.00126728
0.00206977
-0.0003397
-0.000789888
-0.00174259
0.0012096
0.000860172
0.00106311
-0.000679478
-0.000283219
0.00039017
-0.000548353
-0.000666369
0.000219477
-0.000276199
-0.000125188
-0.000158031
-0.000537681
-0.000318204
-0.00123887
0.000318836
-0.0002839
-0.000595677
0.000311777
-0.000156915
-0.00049645
-5.19031e-05
0.00081727
-0.000498434
-0.000660294
0.000503379
-9.49215e-05
0.000359324
-1.8935e-05
0.000264402
-0.000213698
0.000194763
1.69172e-05
0.000140716
-0.000157633
-0.000196781
-0.000416893
-0.000251534
-0.000165359
-0.00010986
0.000255829
0.000416816
-0.000142395
0.000559211
0.00107426
0.000308421
-0.000559955
-0.000401648
-0.00119154
0.000469439
0.000604822
-0.000650133
-0.000541403
0.00132961
-2.22125e-05
0.000107816
0.000233617
0.000112717
-0.000270748
-1.10708e-05
-0.000458853
0.000182654
-0.000510756
-0.000100188
-0.00017056
-0.000418392
-0.000235738
0.000472226
3.11525e-05
-0.000784004
0.00028557
-0.00052237
1.1614e-05
-0.0002368
-0.000293085
0.000324237
-0.000338323
4.52383e-05
-7.39207e-05
-0.000232587
0.000158667
-3.78243e-05
-0.000128515
9.06904e-05
1.22012e-05
5.14838e-06
2.3933e-05
-2.90814e-05
1.23022e-05
-2.32145e-05
4.71475e-05
6.80608e-05
-9.12753e-05
8.0262e-05
-4.51305e-05
-4.61448e-05
-0.000202764
-2.30917e-05
-5.98965e-06
-6.92365e-05
-1.76352e-05
-9.83124e-05
-0.000104451
-0.000263672
-9.99133e-05
-0.000163758
-0.000659869
-9.24768e-05
0.000326093
0.000466734
0.00107156
-0.000428865
-0.000231004
0.000970267
0.000101289
1.64664e-05
2.69423e-05
0.000124282
4.31042e-05
8.11778e-05
0.000369198
5.34504e-05
-0.00022401
1.31026e-05
-7.27049e-05
-0.000151305
-0.000308443
-0.000296829
-0.000230702
-6.61268e-05
-0.000467502
-0.000143265
0.000187127
-2.84599e-05
-0.000232365
8.90999e-05
5.20248e-05
2.82373e-05
0.000142715
0.000114255
3.99287e-05
7.21881e-06
6.81659e-05
1.72316e-05
-4.68788e-05
-2.23577e-05
-0.00015133
-2.16084e-05
3.97319e-06
-4.39661e-05
-3.51921e-06
1.35075e-05
1.29929e-06
4.04499e-05
-9.82762e-05
-5.30539e-05
-0.000262034
-0.000141653
-0.000120381
-0.000372657
0.00032871
4.04875e-05
0.000429999
5.73413e-05
6.42827e-06
3.40216e-05
8.7606e-05
0.000128094
9.46088e-05
-2.64429e-05
0.000208864
-0.000231837
8.05321e-05
-0.000297964
-1.82353e-05
-5.25064e-06
-7.1122e-06
8.41149e-06
-5.11938e-06
-3.74999e-05
-6.46619e-06
-9.05538e-05
-1.18846e-05
8.36542e-06
-1.83508e-05
4.97709e-06
8.98583e-06
-5.74331e-07
4.30074e-05
-6.9531e-05
-2.10228e-05
-0.000189912
-0.000132571
3.02902e-05
1.27173e-05
0.000158384
2.58129e-05
-6.57003e-06
5.9957e-06
4.32319e-06
-6.80188e-06
-7.96182e-07
-7.36621e-06
-6.72091e-07
-6.12978e-06
-2.96012e-06
-2.8775e-05
1.04241e-05
-4.97977e-05
-1.9948e-06
6.97189e-06
8.42935e-06
6.88685e-06
1.18086e-05
-5.81285e-06
2.45258e-05
3.13874e-05
-6.86157e-06
-5.72003e-05
7.40265e-06
1.44256e-07
-7.51047e-06
-5.66859e-06
-2.06072e-06
-4.06907e-06
-9.57118e-06
-1.74996e-06
-5.81903e-06
1.27307e-06
7.15627e-06
8.67575e-06
-3.6855e-06
6.64338e-06
3.20135e-06
1.03576e-05
-4.28901e-07
-5.23968e-06
-7.29044e-06
-8.03053e-06
7.40088e-07
6.45227e-07
7.28814e-07
5.91457e-06
3.57335e-06
-6.39632e-06
-3.17486e-06
-1.1636e-05
-3.97099e-06
-7.14584e-06
5.15432e-07
5.39915e-06
1.08731e-05
1.15183e-05
-1.03924e-05
-1.24354e-06
9.65234e-06
1.86596e-06
1.90628e-06
7.30543e-06
-6.08888e-06
-7.33241e-06
-7.52342e-06
5.65744e-06
)
;

boundaryField
{
    movingWall
    {
        type            calculated;
        value           uniform 0;
    }
    fixedWalls
    {
        type            calculated;
        value           uniform 0;
    }
    frontAndBack
    {
        type            empty;
        value           nonuniform List<scalar> 0();
    }
    defaultFaces
    {
        type            empty;
        value           nonuniform List<scalar> 0();
    }
}


// ************************************************************************* //
