/*--------------------------------*- C++ -*----------------------------------*\
  =========                 |
  \\      /  F ield         | OpenFOAM: The Open Source CFD Toolbox
   \\    /   O peration     | Website:  https://openfoam.org
    \\  /    A nd           | Version:  8
     \\/     M anipulation  |
\*---------------------------------------------------------------------------*/
FoamFile
{
    version     2.0;
    format      ascii;
    class       surfaceScalarField;
    location    "0.031";
    object      phi;
}
// * * * * * * * * * * * * * * * * * * * * * * * * * * * * * * * * * * * * * //

dimensions      [0 3 -1 0 0 0 0];

internalField   nonuniform List<scalar> 
662
(
-2.01741e-05
1.60205e-05
4.15555e-06
2.06073e-05
-4.07814e-05
-8.73992e-05
3.56939e-05
6.77257e-05
-1.72438e-05
2.13993e-05
-0.000150921
8.41289e-05
1.03455e-05
-5.1127e-05
9.3008e-05
-7.45579e-05
-2.24164e-05
4.38157e-05
-0.000179548
3.89728e-05
1.72022e-06
-5.28472e-05
2.17491e-06
-0.000120945
-4.64301e-06
0.000123413
-3.4006e-05
3.61809e-05
0.000163034
-9.24428e-05
5.55519e-05
-1.17361e-05
-0.000182528
4.70047e-06
-7.68022e-07
-5.20792e-05
1.14677e-06
-0.000116122
-5.9697e-06
-3.28593e-05
5.72832e-05
-1.73136e-06
0.000194514
-4.32155e-05
-0.000180535
-2.76106e-06
-2.22825e-06
-4.98509e-05
3.63538e-06
-0.00010259
-1.71678e-05
-2.92239e-05
5.702e-05
2.63218e-07
0.00019725
-4.46804e-06
-1.50425e-06
0.000122441
-0.000122644
1.70778e-06
3.43648e-05
-3.5869e-05
-0.000176087
-6.67674e-06
-4.07562e-05
-9.09466e-06
-2.17612e-05
-1.89951e-05
-1.70257e-05
-4.73545e-06
4.79909e-06
-8.7485e-05
-1.99039e-05
-2.44249e-05
-0.000141347
-0.000756649
0.000897996
6.02864e-05
-3.26638e-06
8.95133e-05
-2.92269e-05
-5.18333e-05
0.000197946
-4.32216e-07
-4.2753e-07
0.00011967
3.1977e-06
3.39373e-05
-0.000151995
-3.31862e-05
-9.55432e-05
-7.5447e-05
-4.37022e-05
-6.88667e-05
2.19813e-05
-2.67167e-05
3.42684e-06
-7.62701e-05
-1.46417e-05
-2.09981e-05
-0.000389929
0.000705169
-0.00107189
-0.000953745
0.00185174
0.000215376
-2.06968e-05
0.000292387
-0.000106238
-0.000149375
-3.56494e-06
0.000106146
1.70896e-05
3.03723e-05
-0.000115496
9.37752e-05
2.70518e-05
-5.37685e-05
-2.7179e-07
-3.86798e-07
-7.56115e-05
-2.12698e-05
0.00135414
-0.00160272
-0.000107249
0.00195899
-4.13155e-06
9.22023e-05
1.8075e-05
2.62408e-05
-0.000196305
0.000107861
-6.54421e-05
1.16736e-05
0.00161449
-0.000367592
0.00199249
-3.35004e-05
-2.83679e-06
7.95304e-05
1.55087e-05
2.3404e-05
-6.77573e-05
2.31525e-06
-0.000226899
4.22673e-05
0.0019906
1.89315e-06
0.00170961
-0.000128623
-5.43699e-06
2.96621e-05
5.53053e-05
1.79669e-05
-6.71763e-05
-5.81052e-07
-0.00023107
6.48596e-06
-2.69857e-08
-0.000111529
0.000108116
3.4404e-06
-3.13484e-05
3.13214e-05
0.00196069
2.99083e-05
0.00172987
-1.83726e-05
-0.00180556
0.000950112
0.000855453
-6.77364e-05
5.60164e-07
0.00191655
4.41346e-05
0.00187785
3.87048e-05
7.22845e-05
0.000156564
0.000793548
9.90007e-05
5.75635e-05
3.12643e-05
-0.000231761
1.09746e-07
-4.10981e-07
-0.000112267
1.1488e-06
-3.17594e-05
0.00171032
4.94597e-05
-0.000172783
-7.87402e-06
4.15894e-05
0.000139068
-0.00136313
0.000783281
0.0014353
-0.000242789
1.15885e-05
0.00166983
8.46285e-05
0.00158271
0.000125821
0.000291866
0.000415313
0.00116152
0.000320339
0.000152538
0.000108814
-8.4899e-08
-0.00011118
-1.00259e-06
-3.18443e-05
-0.000180282
-1.51432e-06
9.01306e-06
-5.34923e-05
4.56183e-05
4.6674e-07
-0.000109109
-2.53737e-06
-3.13776e-05
-0.000165062
4.65948e-06
-1.98792e-05
-5.50066e-05
1.64364e-06
-9.89869e-05
-1.17659e-05
-2.9734e-05
-0.00014312
7.22113e-06
-2.91638e-05
-5.03471e-05
7.87791e-06
-4.25227e-05
-6.43421e-05
-2.18561e-05
-0.000128115
4.23884e-06
-1.92433e-05
-4.31259e-05
3.90271e-06
-2.00883e-05
-0.00011193
-3.8887e-05
-3.49843e-05
0.000497098
-0.000412969
-0.000138577
0.000206303
0.000358521
0.000131745
-0.000948601
0.000515745
0.000432856
-0.000533531
-0.00041507
-0.000661726
0.000368295
0.000293431
-0.000145981
-0.000743291
0.00020976
-0.000120591
-0.0006227
-0.00036468
0.000244089
0.000208778
-0.000621747
-0.000637414
0.000846192
-0.00105248
4.10525e-05
-0.000663753
-0.00101143
-0.000582774
-0.000100065
-0.000563688
-0.000369323
-0.000469388
-0.00041176
0.000543505
-0.000792952
0.00122581
-5.3239e-05
0.000114693
0.00111112
0.000482988
0.000451062
9.8333e-05
0.000384655
0.00041948
-0.000126049
0.000517813
-0.000467463
0.000341413
-0.000613444
-0.000403683
-0.000159594
3.61809e-05
0.000211836
-0.000794611
-0.000799595
-0.00136328
-0.00078991
-5.76184e-05
-0.00130566
-0.000475357
-0.000532976
-0.000239315
0.000690377
0.0008718
0.00125645
0.000647162
0.00023949
0.00101697
0.000401395
0.000116418
0.000640885
0.0001829
0.000158513
0.000299318
3.5869e-05
0.000119974
-0.000909884
-0.00118569
-0.000912645
2.94382e-05
-0.00121513
-0.000550144
-0.000520706
-0.000168382
0.000815543
0.000848584
0.000811075
0.000438053
0.000202832
0.00128664
0.000301026
0.000503858
1.35151e-05
-0.00092616
-0.00120161
-0.000932837
-0.00126261
6.09974e-05
-0.000824098
-0.000438513
-0.000540609
-0.000479612
0.000774729
3.63463e-05
0.000774297
0.00129932
-1.26855e-05
0.00133567
0.000507055
0.00049437
-0.000327249
-0.000605588
-0.00115135
-0.000938626
-0.000212721
-0.000638774
-0.000388041
-0.000550585
0.000393715
-0.000606436
-0.000693898
0.000255384
-0.000300183
-0.000494254
-0.000238869
0.000911354
-0.000137058
0.000890658
0.00141058
-7.49079e-05
0.00127352
0.000511459
0.000436552
0.000306147
-0.000456193
0.000150046
-0.000300289
-0.00068833
-0.00013433
-0.000321863
0.00034954
-0.000424987
-0.000289234
-0.000839819
6.04816e-05
-0.000900301
-0.000627848
-0.000126664
-0.000298322
-0.000195531
-0.000101756
-0.000389631
8.9448e-05
-0.000239585
-0.000239256
-0.000149808
-0.000159406
-8.01787e-05
-0.000293736
-0.000133209
-0.000160527
0.00143616
-0.00158553
0.00200494
-0.000568786
0.000933055
-0.000669664
0.000850688
3.99693e-05
0.000744451
-0.000841083
-0.000825277
0.000865246
0.00133991
-6.63888e-05
0.000514631
0.000454627
0.000388238
0.000549292
-0.00139037
0.00138552
-0.000836231
0.000491045
-0.000624254
-0.000169181
-0.000458667
9.9592e-05
-0.000397914
0.000800709
-0.00125938
-0.00049967
-0.000434677
-0.000189577
-0.000391809
-0.000527437
9.27597e-05
2.35893e-05
-0.000551026
-0.000246689
9.68814e-05
-0.000326868
0.000487395
-0.000394635
-2.12699e-05
-0.00224437
0.00167558
-0.000858846
0.00100592
-0.000737949
-0.000120897
0.000638328
0.0012356
-0.000370352
-0.000154777
0.000650749
-0.000136119
0.000280397
0.000403746
0.000267628
0.000522951
-2.20222e-05
-0.000500929
-9.19873e-05
-0.000744244
-0.000829936
-0.000306985
0.000301045
-0.000455822
-0.000443198
-0.000858394
-0.000400982
-0.00104797
-0.00102438
-0.000792791
-0.000750523
-8.45353e-05
-0.000939846
-0.000495055
-5.5971e-05
-0.000579591
-0.000255198
-0.000139437
-0.000311169
-3.13215e-05
-0.000736147
0.00061525
-0.000758169
0.00125358
0.00112495
-0.000291772
-0.000466398
0.000490113
-0.000781885
0.000487041
-0.000206644
3.1219e-05
0.000735897
-0.000245784
0.000234968
0.00029729
9.06463e-05
0.000342417
-0.000107449
3.54324e-05
0.00022423
-0.000193011
-0.000218969
-0.000183536
-0.000381175
0.000135392
-0.000121456
-0.000818391
-0.000871979
-0.000865493
-0.000439523
-0.000140067
-0.00125791
-0.000307728
-0.000447796
0.000183119
-0.000649517
0.00130807
0.0012897
-0.000442976
-0.000338908
-0.00109249
-0.000339586
-0.000678494
0.000163919
-7.32722e-05
-2.90923e-05
-0.000212628
0.000320078
-0.000184686
1.7967e-05
-4.56183e-05
-0.000920575
5.5082e-05
-0.000920465
-0.0012189
-3.90144e-05
-0.00116382
-0.000446647
-0.000485661
0.00127382
1.58799e-05
0.00132328
-0.0010295
-6.29944e-05
-0.00101362
-0.000669481
-0.000732476
0.00117052
0.000264778
0.00233204
-0.000907231
-1.32346e-05
-0.000895642
-0.00101786
-0.000145958
-0.00103109
-0.000486664
-0.000632622
0.00131757
5.70986e-06
0.0014022
-0.00114549
0.000131868
-0.00113978
-0.000752355
-0.000620487
0.00113382
-0.000841949
0.00139859
-0.000892451
-3.19091e-06
-0.000783637
0.00125715
0.000145044
0.00138298
0.000541027
-0.00180642
0.00102278
-0.000678162
0.00207676
-0.00165388
0.00109826
-7.54815e-05
0.000858573
-0.000861764
-0.00123616
0.000205067
-0.000377589
-0.000635159
-0.000430092
0.000638255
-0.000493211
-0.00121743
7.76541e-05
-0.000579177
-0.000649651
-0.000571997
-0.000308682
0.000849708
0.00176807
0.00115744
-5.9176e-05
0.000295673
-0.000850429
0.000357219
-7.21001e-07
0.000771574
0.0009965
0.000696092
0.000438828
0.000257264
0.000379652
-0.000641161
0.000263572
-0.000345488
-0.000441858
-0.000178285
-0.000777358
0.000198182
-0.00042014
-0.00059124
-0.000393058
-0.000597912
0.000597191
0.000398587
-0.000486822
0.000141334
-0.00010717
-0.000638017
0.000217877
-4.08254e-05
-0.000307751
0.000200582
-5.0487e-05
0.0003481
-0.000220808
-7.94746e-05
-0.000413146
-0.000195269
-0.000342183
0.000146914
-0.000165673
8.61982e-05
3.49087e-05
-0.000383009
-2.18561e-05
3.49843e-05
)
;

boundaryField
{
    movingWall
    {
        type            calculated;
        value           uniform 0;
    }
    fixedWalls
    {
        type            calculated;
        value           uniform 0;
    }
    frontAndBack
    {
        type            empty;
        value           nonuniform List<scalar> 0();
    }
    defaultFaces
    {
        type            empty;
        value           nonuniform List<scalar> 0();
    }
}


// ************************************************************************* //
