/*--------------------------------*- C++ -*----------------------------------*\
  =========                 |
  \\      /  F ield         | OpenFOAM: The Open Source CFD Toolbox
   \\    /   O peration     | Website:  https://openfoam.org
    \\  /    A nd           | Version:  8
     \\/     M anipulation  |
\*---------------------------------------------------------------------------*/
FoamFile
{
    version     2.0;
    format      ascii;
    class       volVectorField;
    location    "0.031";
    object      U;
}
// * * * * * * * * * * * * * * * * * * * * * * * * * * * * * * * * * * * * * //

dimensions      [0 1 -1 0 0 0 0];

internalField   nonuniform List<vector> 
656
(
(0.74338 0.0565323 -9.65305e-25)
(0.927892 0.0140698 1.86647e-24)
(0.954782 -0.00127318 0)
(-0.0910749 0.119004 2.39923e-23)
(0.556752 0.0977232 1.12086e-23)
(0.841214 0.000937943 0)
(-0.0571791 0.0672354 -4.9406e-23)
(-0.0145957 0.0188487 9.84888e-24)
(0.968193 -0.000151087 0)
(-0.000506953 0.138583 -2.37948e-24)
(-0.00305593 0.193094 -7.83968e-23)
(-0.117739 0.17206 0)
(0.376013 0.139827 1.00517e-23)
(0.714959 0.00929597 0)
(0.890869 0.00126892 -1.70564e-22)
(0.906299 0.000573865 4.77682e-23)
(0.00104002 0.0823364 9.72913e-24)
(0.0013745 0.0267205 0)
(0.971772 -7.77411e-05 -3.43182e-23)
(0.913221 0.00028722 -1.43676e-22)
(-0.0123907 0.0927924 7.71567e-23)
(-0.00523498 0.0628244 0)
(-0.0239269 0.124987 1.33458e-24)
(-0.0079102 0.242475 1.54102e-22)
(-0.136119 0.223432 -1.67769e-22)
(0.210338 0.1804 -2.26565e-23)
(0.577568 0.0245572 0)
(0.800473 0.00635425 2.66294e-22)
(0.829005 0.00300015 -8.91132e-23)
(-0.00144251 0.0356406 0)
(-0.000151514 0.0114381 0)
(0.916374 0.000149053 5.13581e-23)
(0.973237 -4.90788e-05 -3.66533e-23)
(0.842165 0.00158039 1.9576e-22)
(0.848326 0.000779946 -5.18204e-23)
(0.852766 5.19797e-05 -1.0898e-22)
(-0.0067742 0.0608231 -1.05467e-22)
(-0.00280493 0.0408855 1.70833e-23)
(-0.013781 0.0824012 -1.88482e-22)
(-0.040857 0.158371 -1.57793e-22)
(-0.0167384 0.282703 1.66599e-22)
(-0.143752 0.269516 -4.80049e-24)
(0.0686204 0.217867 4.55088e-22)
(0.433013 0.0473462 0)
(0.6962 0.0161747 0)
(0.738634 0.00794847 -3.69673e-22)
(-0.000821144 0.0230091 -5.4064e-24)
(-0.000128836 0.00731786 0)
(0.853701 -0.000871377 1.20317e-22)
(0.918748 2.53762e-05 -2.78403e-23)
(0.973815 -2.1973e-05 4.93153e-24)
(0.758571 0.00426721 0)
(0.768113 0.00211262 0)
(0.77494 0.000122788 -1.06761e-22)
(0.776512 -0.00234737 4.60297e-22)
(0.762046 -0.00596542 0)
(-0.0103621 0.0365649 2.00334e-22)
(-0.00501607 0.0257227 2.95409e-22)
(-0.00202654 0.016512 -2.8779e-22)
(-0.0250045 0.104635 -1.8542e-22)
(-0.0193166 0.0488593 5.85289e-22)
(0.286558 0.0795329 -1.32798e-22)
(0.577955 0.031866 1.75068e-22)
(0.634161 0.01642 -5.20632e-22)
(-0.000553549 0.00884735 4.54227e-23)
(-6.74071e-05 0.0025626 6.09648e-23)
(0.843825 -0.00220894 -2.55034e-22)
(0.919311 -0.000141943 8.55574e-23)
(0.974464 1.25438e-05 5.48714e-24)
(0.725753 -0.0151069 -1.15993e-23)
(0.661048 0.00894077 0)
(0.674195 0.00451723 1.93403e-22)
(0.68378 0.000324401 2.04308e-22)
(0.686389 -0.00476861 -8.83457e-22)
(0.667513 -0.0123904 2.27606e-22)
(-0.00838859 0.0139342 8.89378e-22)
(-0.00404993 0.00914864 -6.76657e-24)
(-0.0018263 0.00551879 0)
(-0.000643418 0.00296506 1.0588e-22)
(0.447093 0.0555995 0)
(0.515597 0.0300761 6.65914e-22)
(-8.96529e-05 0.00128116 -1.00239e-22)
(5.51235e-05 0.000243842 -3.08949e-23)
(0.604182 -0.0240212 4.72289e-22)
(0.819611 -0.00588947 1.49827e-22)
(0.913917 -0.000364558 0)
(0.974815 4.32115e-05 -5.29038e-23)
(0.618527 -0.0300436 -2.89144e-22)
(0.467327 -0.0470906 7.26719e-22)
(0.25119 -0.190659 -8.79711e-22)
(0.548716 0.0167515 0)
(0.56525 0.00847643 4.66778e-23)
(0.577896 0.000876482 -1.45335e-22)
(0.582212 -0.0086412 5.12517e-22)
(0.559712 -0.0229077 -8.70861e-22)
(-0.0147941 0.00625255 3.7426e-22)
(-0.00926339 0.0030645 -3.99331e-22)
(-0.00539175 0.00139811 -1.9795e-22)
(-0.00281325 0.000481007 3.91843e-22)
(-0.00117663 4.44865e-05 4.71881e-23)
(-0.000206448 -6.16581e-05 -2.85327e-23)
(-0.136815 -0.249994 5.90176e-23)
(0.411763 -0.147922 -6.1421e-23)
(0.732402 -0.00899062 -7.96542e-22)
(0.900841 -0.00111536 0)
(0.973574 0.00011147 0)
(0.497793 -0.0536012 5.52709e-22)
(0.324304 -0.0807207 -2.77703e-22)
(0.105857 -0.229832 1.02651e-22)
(-0.141591 -0.297806 1.3847e-21)
(-0.0464782 0.0111961 0)
(-0.033969 0.00581464 1.87164e-22)
(-0.0235701 0.00284814 -6.6105e-22)
(-0.0149828 0.0011428 1.84336e-22)
(-0.00792857 0.000288199 -4.3923e-23)
(-0.00212966 2.26603e-05 -2.72702e-23)
(-0.00767178 -0.288157 0)
(-0.120705 -0.194782 0)
(0.582813 -0.103388 4.88498e-22)
(0.850192 -0.000873674 -3.99915e-23)
(0.970507 0.000203674 -1.03161e-22)
(-0.0158144 -0.33175 -1.64702e-21)
(-0.0756329 0.00990347 0)
(-0.0566152 0.00547427 1.93542e-22)
(-0.0402136 0.0027399 -1.45179e-24)
(-0.0261762 0.00116348 9.57059e-23)
(-0.0142272 0.000358991 -4.49765e-23)
(-0.00410539 7.22524e-05 0)
(-0.0277113 -0.162882 -5.51397e-22)
(-0.00301947 -0.232616 0)
(-0.0950106 -0.136132 5.08397e-22)
(0.757844 -0.0597735 0)
(0.956503 0.00135161 7.65102e-23)
(-0.0468396 -0.203254 0)
(-0.0973677 0.00814618 0)
(-0.0736589 0.00453452 1.20372e-22)
(-0.0528339 0.00230899 -3.49009e-22)
(-0.0347308 0.00101456 1.12936e-22)
(-0.0191301 0.000342295 5.04641e-23)
(-0.00575348 8.90976e-05 -1.69188e-23)
(-0.0156289 -0.117425 2.82689e-22)
(-0.0145843 -0.122358 0)
(-0.000272599 -0.168825 -4.45589e-22)
(-0.0605243 -0.0775818 4.30489e-22)
(0.931386 -0.0147236 0)
(-0.0283736 -0.146495 0)
(-0.10598 0.00706708 1.53537e-22)
(-0.0802585 0.00399589 -1.48224e-22)
(-0.0576545 0.00203428 1.43434e-22)
(-0.0379691 0.000888811 -2.74628e-22)
(-0.0209842 0.000300305 3.77679e-22)
(-0.00645395 7.83256e-05 -5.03571e-23)
(-0.0132122 -0.0664993 2.43924e-22)
(-0.00770953 -0.0879454 -5.22334e-22)
(-0.00598405 -0.083418 1.52113e-22)
(0.00180293 -0.100563 -4.62055e-22)
(-0.0141868 -0.0213976 1.31011e-23)
(-0.0238392 -0.0850644 0)
(-0.0151147 -0.0442045 -5.50271e-23)
(-0.106684 0.00759352 -1.89053e-22)
(-0.0806872 0.00480709 7.62139e-22)
(-0.0580375 0.00258417 -7.27692e-22)
(-0.0383521 0.00111591 0)
(-0.0212842 0.000345243 0)
(-0.00664269 7.20398e-05 -5.52485e-24)
(-0.00830729 -0.0343246 1.17349e-22)
(-0.0065985 -0.0488154 3.40777e-24)
(-0.00302783 -0.0597845 3.98191e-22)
(-0.00126405 -0.0472143 -1.49581e-22)
(0.00233634 -0.0309707 0)
(-0.00846339 -0.0193432 8.917e-22)
(-0.0624375 0.00396258 8.31208e-22)
(-0.0409113 0.00250411 -8.59542e-22)
(-0.022493 0.000887982 0)
(-0.00692514 0.000155274 -7.78897e-24)
(-0.00465747 -0.0144413 -2.36449e-22)
(-0.00409636 -0.0249505 -9.17523e-23)
(-0.00270268 -0.0326501 1.89183e-22)
(-0.000643545 -0.033833 -1.29417e-22)
(0.000181305 -0.014263 4.94473e-23)
(-0.00431286 -0.00549706 0)
(-0.00259732 0.00328474 -1.02269e-21)
(-0.0497049 0.00111909 0)
(-0.0174069 0.000381238 -2.72288e-23)
(-0.00148668 0.000359026 0)
(-0.00229647 -0.00380066 -2.40626e-22)
(-0.00227235 -0.0101192 -4.59608e-22)
(-0.00168367 -0.0165176 -6.25437e-23)
(-0.000717327 -0.0182723 1.27245e-22)
(7.57077e-05 -0.0105267 -4.96377e-23)
(-0.00103109 -0.000603685 2.08609e-21)
(-0.00125309 0.0016403 2.17608e-21)
(-0.003006 0.00364486 7.00992e-23)
(-0.00017687 0.00160965 -4.81374e-22)
(-0.000733943 0.000677682 -9.14302e-25)
(-0.00107886 -0.00242667 1.24624e-22)
(-0.000928597 -0.00647323 3.72273e-22)
(-0.000473299 -0.00916362 7.62937e-24)
(-6.51545e-05 -0.00572931 -2.28134e-23)
(-0.00015138 -0.00217998 -1.78396e-24)
(-0.000431394 -0.0011578 -1.74517e-21)
(-0.00052476 0.00075934 -5.26195e-22)
(-0.00131683 0.0015703 0)
(-0.00311012 0.00888449 1.51305e-21)
(0.000318816 0.00128118 -2.58709e-22)
(-3.35287e-05 0.00145867 2.56504e-22)
(-0.000309763 0.00077295 1.28398e-22)
(-0.000425035 -0.00139454 0)
(-0.000263709 -0.00347685 -1.22018e-22)
(-6.32345e-05 -0.00287617 1.71434e-23)
(0.000194303 -0.00244998 8.27093e-22)
(6.84124e-06 -0.00209753 3.33575e-22)
(-0.000153807 -0.00126352 1.96529e-22)
(-0.000166182 0.000254409 5.35234e-23)
(-0.00032367 0.000550479 -6.13412e-23)
(-0.000446915 0.00205099 1.08932e-21)
(0.000266146 0.000462387 1.0812e-21)
(0.000208992 0.00109208 -4.04678e-22)
(1.11763e-05 0.00120305 -2.63973e-22)
(-0.000106113 0.000685039 -1.28485e-22)
(-0.000112069 -0.000661689 0)
(-3.8482e-05 -0.00105501 -1.1282e-23)
(0.000463014 -0.00180224 0)
(0.000161891 -0.00210971 -2.86153e-22)
(4.18399e-05 -0.00176676 -9.85886e-22)
(-3.54064e-05 -0.00107455 3.21178e-22)
(-2.09141e-05 9.67966e-06 -3.57687e-22)
(-1.18157e-05 1.77682e-05 9.63954e-24)
(0.000461748 0.000165214 -4.69704e-22)
(0.000149547 0.000349799 7.16058e-22)
(0.000119433 0.000852765 -6.92841e-22)
(1.80659e-05 0.000880438 1.32345e-22)
(-1.76307e-05 0.000469092 0)
(-1.07688e-05 -0.00016832 1.11552e-23)
(0.000344998 -0.000621234 0)
(0.000280431 -0.00149698 5.50218e-22)
(0.000102418 -0.00165813 7.16144e-22)
(3.4661e-05 -0.00130072 9.39119e-22)
(8.07086e-06 -0.000709591 -3.33463e-22)
(9.50466e-06 -4.1801e-05 -2.20161e-23)
(0.00102754 0.00023691 -5.60751e-22)
(0.00033294 9.04971e-05 0)
(7.36281e-05 0.000242576 5.14222e-22)
(5.63983e-05 0.000594951 0)
(1.39767e-05 0.000527131 0)
(5.63067e-06 0.000174632 0)
(0.000639543 -0.000204733 6.26976e-22)
(0.000187757 -0.000471726 -5.69098e-22)
(0.000150429 -0.00114316 -5.59878e-22)
(5.25687e-05 -0.00116343 -4.17905e-22)
(2.23118e-05 -0.000778711 -4.34507e-22)
(1.26396e-05 -0.000253056 1.31054e-23)
(0.001434 0.000126965 0)
(0.000826845 0.000136867 1.40536e-22)
(0.000222528 4.48787e-05 0)
(2.87009e-05 0.00015014 2.01712e-27)
(1.95571e-05 0.000340013 0)
(8.06381e-06 0.000170192 -8.97848e-23)
(0.00157089 -1.63807e-05 0)
(0.00136306 -0.000218204 -5.65869e-22)
(0.000469156 -0.000116077 -1.57904e-22)
(8.92691e-05 -0.000327047 2.91786e-22)
(6.79035e-05 -0.000782499 -4.14858e-22)
(2.2568e-05 -0.000669749 -1.31417e-22)
(1.16103e-05 -0.000251922 9.15163e-23)
(0.0011599 7.1991e-05 -1.88732e-23)
(0.000619801 7.12176e-05 -2.10174e-22)
(0.000134597 1.76162e-05 0)
(5.7906e-06 7.53322e-05 -1.08186e-22)
(5.18403e-06 0.000100128 9.05738e-23)
(0.00126829 -1.19786e-05 2.09847e-24)
(0.0010945 -0.000129715 6.3549e-22)
(0.000319491 -5.84074e-05 -4.91042e-27)
(3.41315e-05 -0.000202674 1.31542e-25)
(2.23456e-05 -0.000439053 -2.65217e-22)
(8.93811e-06 -0.000203383 8.3604e-23)
(0.000877411 3.72821e-05 1.48549e-22)
(0.000420901 3.16394e-05 1.02531e-22)
(6.69992e-05 3.52499e-06 -1.26131e-22)
(-9.34032e-07 1.76213e-05 2.30002e-23)
(0.000958928 -7.50368e-06 2.09395e-24)
(0.000821787 -6.99173e-05 -1.40562e-22)
(0.000197232 -2.33089e-05 4.54005e-22)
(6.72325e-06 -0.000102058 -2.12701e-22)
(5.62643e-06 -0.000124958 3.38083e-26)
(0.000602996 1.66885e-05 0)
(0.000237525 1.05691e-05 1.13797e-22)
(1.60994e-05 -8.56938e-07 7.96595e-23)
(0.000659257 -4.31662e-06 0)
(0.00055986 -3.22273e-05 -2.05626e-22)
(0.000100344 -4.90856e-06 3.95786e-22)
(-1.15686e-06 -2.39352e-05 4.39564e-23)
(0.000346424 5.76829e-06 -9.7077e-25)
(7.27094e-05 2.58998e-06 -1.42995e-22)
(0.000379113 -2.2956e-06 9.69507e-25)
(0.00031731 -1.14501e-05 -1.13992e-22)
(2.48805e-05 9.4462e-07 1.12899e-22)
(0.000112609 1.49853e-06 4.33744e-23)
(0.000123455 -1.11672e-06 0)
(9.78416e-05 -3.29316e-06 -1.09929e-23)
(-0.142842 0.303944 2.22461e-21)
(-0.0270215 0.258826 5.0955e-22)
(-0.041877 0.128033 0)
(-0.0753562 0.189091 2.78813e-21)
(-0.0629294 0.193916 -2.94636e-21)
(-0.0731223 0.267845 0)
(-0.0374197 0.310877 0)
(-0.0981485 0.352983 -1.02621e-21)
(-0.0851539 0.313866 0)
(-0.0390337 0.266353 -1.88517e-21)
(0.151811 0.126461 4.23683e-21)
(-0.0956407 0.278283 0)
(-0.0337413 0.0635489 -3.66049e-22)
(-0.0559615 0.104926 0)
(-0.0161756 0.0192431 -3.82221e-21)
(-0.0384989 0.0468634 3.91142e-21)
(-0.0829661 0.121223 -2.2726e-21)
(-0.114577 0.158701 0)
(-0.0953422 0.202872 0)
(-0.119116 0.239469 6.18706e-22)
(-0.109091 0.294902 0)
(-0.0978659 0.289045 1.95888e-21)
(-0.0159612 0.193909 2.37001e-21)
(0.0940728 0.155095 -5.71706e-21)
(0.30192 0.0908457 1.12308e-21)
(-0.150018 0.234266 -5.90351e-22)
(-0.140917 0.251513 0)
(-0.0215472 0.0120359 -3.16292e-21)
(-0.0490739 0.0285465 8.66361e-22)
(-0.060593 0.0519657 7.21261e-22)
(-0.0910639 0.0814871 2.31074e-21)
(-0.121048 0.080178 -4.45102e-21)
(-0.166845 0.11459 -3.93746e-21)
(-0.159033 0.155937 -3.00933e-21)
(-0.184283 0.184266 5.63694e-21)
(-0.131586 0.207624 -1.64217e-21)
(-0.0609313 0.183164 -1.71402e-21)
(0.0418288 0.127588 0)
(0.385831 0.0499709 -5.74604e-21)
(0.189037 0.105835 0)
(0.421387 0.0292766 0)
(0.241428 0.0586247 4.83585e-21)
(-0.206628 0.171308 0)
(-0.179325 0.178319 0)
(-0.0113925 -0.276969 6.04133e-21)
(-0.146456 -0.329819 0)
(0.384188 -0.0829702 0)
(0.433056 0.01436 -1.9713e-22)
(0.270066 0.0333276 0)
(0.266121 -0.093576 0)
(0.453069 -0.0372271 1.18485e-21)
(0.45437 0.00160891 3.70027e-21)
(0.292034 0.00812719 0)
(0.315607 -0.0437888 0)
(0.469839 -0.0151478 0)
(0.320271 -0.0148981 -3.75716e-21)
(-0.0637675 0.0224132 1.15116e-21)
(-0.0970093 0.0357662 -1.44796e-21)
(-0.11997 0.0482184 4.76112e-21)
(-0.172507 0.0541475 0)
(-0.201248 0.0841038 0)
(-0.230374 0.0941219 -3.10905e-21)
(-0.248589 0.118366 -2.36526e-21)
(-0.15336 0.137397 0)
(0.0650953 0.0792543 3.34858e-21)
(-0.0371199 0.116556 0)
(0.148257 0.0425175 0)
(0.00199668 0.0667744 -3.62132e-21)
(-0.266048 0.104292 7.8564e-21)
(-0.228948 0.111107 -2.3212e-21)
(-0.0124811 -0.26338 -3.40924e-21)
(0.170759 -0.137157 7.67557e-21)
(0.145104 -0.156245 -6.00845e-21)
(-0.115504 -0.385885 1.70574e-21)
(-0.0784614 -0.327738 -3.71321e-21)
(-0.0366952 -0.358891 2.43871e-22)
(0.0454111 -0.182343 -6.36704e-21)
(0.0480982 -0.152385 2.08779e-21)
(0.145893 -0.108971 3.23114e-21)
(0.129085 0.00937086 0)
(0.0216822 0.0368064 0)
(0.0819679 -0.0931837 -3.56097e-21)
(0.184635 -0.056659 0)
(0.0958993 -0.0458366 -3.32039e-21)
(0.195323 -0.0211009 3.02793e-21)
(0.0564348 -0.010206 4.61504e-21)
(-0.0967786 0.0159725 1.65595e-21)
(-0.140187 0.0245307 0)
(-0.167069 0.0338394 0)
(-0.211841 0.0393292 3.28983e-21)
(-0.243185 0.0576657 0)
(-0.271907 0.0583913 8.27572e-21)
(-0.292334 0.0739948 -7.07101e-21)
(-0.111332 0.0524941 0)
(-0.134163 0.0671105 -5.68189e-21)
(-0.223332 0.0850305 1.15742e-20)
(-0.197022 0.0383074 0)
(-0.291353 0.0727687 -7.48144e-21)
(-0.303829 0.0668801 -3.99162e-21)
(-0.0875293 -0.313063 0)
(-0.0729133 -0.246363 7.73242e-21)
(-0.0722382 -0.241418 0)
(-0.0647219 -0.320879 -5.27823e-22)
(-0.0911556 -0.323466 4.14548e-22)
(-0.104628 -0.239869 -7.94137e-21)
(-0.0634983 -0.186667 -7.2976e-21)
(-0.0937282 -0.160674 9.70421e-21)
(-0.0412758 -0.114615 2.99484e-21)
(-0.107646 -0.0820608 -3.9224e-21)
(-0.0548056 -0.0521438 0)
(-0.081559 -0.018359 -3.19013e-21)
(-0.174792 0.00971023 0)
(-0.122512 0.0129441 0)
(-0.166276 0.0193947 -1.284e-21)
(-0.196276 0.0250732 -5.02979e-21)
(-0.230024 0.0311532 4.31401e-21)
(-0.258431 0.0414983 -1.53473e-21)
(-0.276422 0.0433769 -1.97007e-21)
(-0.304212 0.0547613 6.23591e-21)
(-0.277133 0.0446301 -6.95694e-21)
(-0.299635 0.0593317 8.48189e-21)
(-0.264112 0.0143623 0)
(-0.297167 0.0376811 -1.19148e-21)
(-0.317775 0.0593118 0)
(-0.310669 0.0543144 0)
(-0.0467165 -0.171674 -1.23767e-20)
(-0.0897566 -0.245944 4.26917e-21)
(-0.110393 -0.255452 5.15802e-21)
(-0.12301 -0.285371 -7.10985e-22)
(-0.139567 -0.256082 6.55928e-22)
(-0.173707 -0.20653 -7.46955e-21)
(-0.176961 -0.167667 0)
(-0.197414 -0.110867 -9.3411e-21)
(-0.277996 0.0165849 -4.39556e-21)
(-0.237779 -0.0806556 6.79583e-21)
(-0.273286 -0.0187252 2.80376e-21)
(-0.13414 0.0112879 4.5283e-21)
(-0.290591 0.0510753 2.70182e-21)
(-0.171511 0.0174251 -3.23525e-21)
(-0.19662 0.0226419 -2.80043e-21)
(-0.22334 0.0303616 -6.06499e-21)
(-0.258098 0.0384551 1.35702e-21)
(-0.267115 0.0424316 -3.43749e-21)
(-0.290353 0.0439253 -2.70112e-21)
(-0.31427 0.0582184 6.73567e-22)
(-0.30987 0.0491647 1.23394e-21)
(-0.270315 0.0567378 4.82035e-21)
(-0.286843 0.0547774 1.99916e-21)
(-0.297479 0.0619947 -1.28073e-21)
(-0.289637 0.0588348 -1.92105e-21)
(-0.237777 0.0622479 -6.67854e-21)
(-0.0385008 -0.102846 0)
(-0.0622049 -0.162817 8.28251e-21)
(-0.17892 0.06404 0)
(-0.216918 0.0536271 4.37832e-21)
(-0.11762 0.059769 8.47294e-21)
(-0.142883 0.0564267 -5.59487e-21)
(-0.0855855 -0.177741 0)
(-0.125232 -0.217332 -4.90322e-21)
(-0.162364 -0.194647 1.50088e-20)
(-0.215086 0.0274296 -5.83732e-21)
(-0.2416 0.00803359 4.62183e-21)
(-0.178488 -0.153808 -1.07044e-20)
(-0.228872 -0.0753336 1.13852e-22)
(-0.219434 -0.0464585 -9.42905e-21)
(-0.134073 0.0114247 0)
(-0.26205 0.0510113 0)
(-0.241494 0.0383064 2.6012e-22)
(-0.246816 0.0448297 -3.55029e-22)
(-0.166901 0.0195303 -5.03422e-21)
(-0.194533 0.0255779 5.35366e-21)
(-0.212488 0.0304667 4.64426e-21)
(-0.280143 0.0675997 1.83243e-21)
(-0.272178 0.067171 -4.1716e-22)
(-0.242765 0.0748319 3.63529e-21)
(-0.223702 0.073944 1.32612e-21)
(-0.254884 0.0553531 -5.48262e-21)
(-0.260217 0.0694991 1.99586e-23)
(-0.267049 0.0616548 4.68137e-21)
(-0.197177 0.0795694 2.29947e-21)
(-0.172551 0.0780085 -7.50176e-21)
(-0.116855 0.071108 2.88179e-21)
(-0.141672 0.0782762 2.38131e-21)
(-0.0932434 0.0689522 -3.36517e-21)
(-0.0559299 0.0510553 0)
(-0.0738379 0.0573806 2.79593e-21)
(-0.0892975 0.0532455 -2.39904e-22)
(-0.0809509 0.0457995 0)
(-0.0243564 -0.0534403 -4.19976e-21)
(-0.0482095 -0.092728 4.10899e-21)
(-0.0584121 -0.100015 2.88884e-21)
(-0.0938473 -0.134921 0)
(-0.104541 0.0309038 1.02023e-20)
(-0.137422 0.0331922 0)
(-0.164839 0.0182434 5.66243e-21)
(-0.119443 -0.113351 1.30697e-22)
(-0.148955 -0.026023 1.53384e-21)
(-0.149441 -0.121215 -4.22142e-21)
(-0.176754 -0.0546414 8.46947e-21)
(-0.0134903 -0.0247464 -4.96495e-22)
(-0.0247909 -0.0420786 0)
(-0.124187 0.0104448 0)
(-0.0838949 0.00368172 -5.15957e-22)
(-0.101418 0.0048275 5.20114e-22)
(-0.220069 0.0428029 -3.01343e-21)
(-0.230419 0.0525462 2.6492e-21)
(-0.147751 0.0160935 0)
(-0.18199 0.024848 -2.46162e-21)
(-0.197801 0.0340808 2.96392e-21)
(-0.195112 0.0838693 1.24135e-21)
(-0.234822 0.0743494 -2.01942e-21)
(-0.228295 0.0791849 -2.5619e-21)
(-0.21476 0.0584347 -3.41386e-21)
(-0.21495 0.0695067 6.76804e-22)
(-0.172651 0.0818712 0)
(-0.144825 0.0820086 0)
(-0.131475 0.0804722 0)
(-0.104518 0.0772007 -2.97328e-21)
(-0.0852814 0.070795 -1.67369e-21)
(-0.0657038 0.0643731 3.98553e-21)
(-0.049143 0.0527998 0)
(-0.00755203 0.0142263 0)
(-0.00483071 0.00943346 -6.66679e-22)
(-0.0138353 0.025341 3.59161e-21)
(-0.0221831 0.034168 -3.14845e-21)
(-0.0353339 0.045909 0)
(-0.0250491 0.0321248 -5.84949e-21)
(-0.0381537 0.0393145 3.6425e-23)
(-0.0103743 0.0151889 0)
(-0.0141931 0.0198087 -4.59423e-21)
(-0.00473669 0.00591778 0)
(-0.0403038 0.0346624 1.29781e-23)
(-0.0578287 0.0391574 1.98072e-23)
(-0.0569298 0.0297924 3.55367e-21)
(-0.0895678 0.0253661 -4.32484e-21)
(-0.035236 -0.0467481 8.81626e-21)
(-0.0587805 -0.0651209 -1.85563e-20)
(-0.0859601 -0.0651666 3.95294e-21)
(-0.0848962 0.00896641 -2.27954e-21)
(-0.0938237 -0.0367348 8.37923e-21)
(-0.113874 -0.0217588 -5.88711e-21)
(-0.00664605 -0.00731552 0)
(-0.0125959 -0.0154319 0)
(-0.0155905 -0.0166967 -3.64747e-21)
(-0.0311571 -0.0277784 -5.33545e-21)
(-0.00407291 0.00669264 5.64131e-22)
(-0.115836 0.0100822 1.25855e-21)
(-0.0686479 0.000736253 0)
(-0.0860689 0.00267992 -1.10116e-21)
(-0.144096 0.028513 1.49667e-21)
(-0.170458 0.0364923 -4.46881e-21)
(-0.185829 0.0535419 -7.9667e-23)
(-0.159137 0.0660944 4.05266e-21)
(-0.177961 0.0740196 -4.75513e-21)
(-0.165603 0.0792736 3.23479e-21)
(-0.0967592 0.0770268 -3.92697e-21)
(-0.125724 0.0761036 6.07477e-23)
(-0.123114 0.0806044 1.1109e-21)
(-0.0361654 0.051736 4.03827e-21)
(-0.0551961 0.0628094 -4.3066e-23)
(-0.0767509 0.0699128 1.95727e-21)
(-0.0108531 0.0266444 1.76297e-21)
(-0.0266391 0.0437059 -2.1366e-21)
(-0.00613822 0.0172911 -1.5846e-21)
(-0.0159608 0.0182922 5.22882e-21)
(-0.0252656 0.0235895 0)
(-0.00482059 0.00518437 4.10829e-21)
(-0.00708438 0.00766409 -7.26097e-21)
(-0.00213508 0.000659086 0)
(-0.0021865 -0.000162966 0)
(-0.00438746 -0.00261521 -1.15557e-21)
(-0.0257616 0.0192186 5.23889e-21)
(-0.0398081 0.0214376 -1.51616e-23)
(-0.0396862 0.0141481 -1.07775e-20)
(-0.0609596 0.00757803 1.0881e-20)
(-0.0375259 -0.0176384 3.80895e-21)
(-0.0523721 -0.0173281 -3.09082e-21)
(-0.0461028 -0.0024272 -3.80741e-21)
(-0.00634873 -0.00351321 7.1728e-22)
(-0.0126206 -0.00739216 2.0342e-21)
(-0.0206421 -0.00677859 1.40881e-21)
(-0.00493559 0.0130909 -3.04464e-21)
(-0.0285597 0.0483171 0)
(-0.0602284 0.0623596 0)
(-0.091297 0.0351984 3.9479e-21)
(-0.106607 0.0540294 -2.76766e-21)
(-0.098895 0.0655034 0)
(-0.0218321 0.00254639 3.07206e-23)
(-0.061399 0.0144864 0)
(-0.00977834 0.0301703 -1.03418e-22)
(-0.000898343 0.00121845 -6.08594e-22)
(-0.000287308 0.00161632 2.99345e-21)
(-0.00889951 0.00717025 7.4937e-21)
(-0.0141254 0.0107217 0)
(-0.00151523 -0.000294543 -3.39617e-21)
(-0.00331573 0.00115385 -1.07814e-20)
(-0.000494632 -0.00184475 5.95213e-21)
(-0.0014476 0.000920204 4.21801e-22)
(-0.00525594 -0.00118656 0)
(-0.0152651 0.00627606 0)
(-0.0247281 0.00796796 0)
(-0.0271381 0.000617627 0)
(-0.00729819 -0.000984819 4.81278e-21)
(-0.0157265 -0.00308899 -4.1124e-21)
(-0.0178953 0.000587072 0)
(-0.0012878 0.00968096 0)
(-0.000584951 0.00118976 2.72212e-21)
(0.00045939 0.00138716 -6.82798e-21)
(0.000484067 0.00157786 1.18851e-20)
(0.000420238 0.00138047 -7.18294e-21)
(0.000723454 0.00102431 -2.33837e-21)
(0.000395309 0.00054178 0)
(-0.00306012 0.000440754 3.51706e-21)
(-0.00648546 0.00176866 0)
(8.90169e-05 -0.00239806 0)
(-0.000300832 -0.00187066 0)
(0.000173286 -0.00257628 -1.29419e-21)
(-0.00100368 0.000722683 2.23554e-21)
(-0.00320396 0.000470541 0)
(-0.00257476 0.000413492 6.76679e-21)
(-0.00460712 0.00103092 1.7896e-21)
(-0.00593686 0.00157811 -6.74893e-21)
(0.000867038 0.00113268 0)
(0.000420372 0.000990162 5.27828e-21)
(0.00102231 0.000876994 8.56078e-21)
(0.00118338 0.00100435 -9.7101e-21)
(0.000576661 0.000291838 -1.74297e-22)
(0.00102334 0.000544668 7.23175e-21)
(0.000556603 -0.00180847 1.45247e-21)
(-4.89343e-05 -0.000900355 -1.08917e-21)
(0.000645293 -0.00198743 -8.36357e-21)
(0.000806219 -0.00228379 1.14282e-20)
(0.000987403 -0.00210049 0)
(0.000898046 0.000769179 -5.35719e-21)
(0.000158456 0.00078519 -7.84157e-21)
(0.00124081 7.74554e-05 1.16261e-20)
(0.00117344 -0.00073409 0)
(0.000929409 -0.00127704 0)
(0.000510867 -0.000719557 4.45894e-21)
(0.00158161 0.000697916 3.35679e-21)
(0.00164087 0.000679612 -5.95375e-21)
(0.00121448 0.000384216 -1.30445e-22)
(0.00157634 0.00050358 1.73916e-24)
(0.00135413 -0.00113427 0)
(0.00164303 -0.00134309 1.94999e-21)
(0.00182225 -0.000856805 -1.6846e-21)
(0.00208581 0.000249553 -4.04068e-24)
(0.00204453 -0.000427602 7.9963e-22)
(0.00198855 -7.25554e-05 6.32099e-21)
(0.000777905 -0.000336463 -5.91052e-21)
(0.00139201 -0.000642866 0)
(0.00169866 0.000217054 -8.82957e-21)
(0.00203649 0.000183274 4.20959e-21)
(0.00187033 -1.79089e-05 4.48248e-21)
(0.00163684 -0.000360302 0)
(0.00195324 -0.000364187 -4.91094e-21)
)
;

boundaryField
{
    movingWall
    {
        type            fixedValue;
        value           uniform (1 0 0);
    }
    fixedWalls
    {
        type            noSlip;
    }
    frontAndBack
    {
        type            empty;
    }
    defaultFaces
    {
        type            empty;
    }
}


// ************************************************************************* //
