/*--------------------------------*- C++ -*----------------------------------*\
  =========                 |
  \\      /  F ield         | OpenFOAM: The Open Source CFD Toolbox
   \\    /   O peration     | Website:  https://openfoam.org
    \\  /    A nd           | Version:  8
     \\/     M anipulation  |
\*---------------------------------------------------------------------------*/
FoamFile
{
    version     2.0;
    format      ascii;
    class       volScalarField;
    location    "0.072";
    object      p;
}
// * * * * * * * * * * * * * * * * * * * * * * * * * * * * * * * * * * * * * //

dimensions      [0 2 -2 0 0 0 0];

internalField   nonuniform List<scalar> 
656
(
5.30266e-07
-0.235415
1.7286
-0.786698
0.189109
1.73124
-1.15106
-1.55284
2.055
1.70641
1.76606
-0.438535
0.386131
1.74772
2.03451
2.2592
1.63658
1.58731
2.26848
2.3914
1.8021
1.82117
1.78639
1.81791
-0.0678267
0.616183
1.77439
2.01726
2.25044
1.84381
1.86661
2.55673
2.39637
2.38638
2.55445
2.69
2.15653
2.17263
2.13722
1.78223
1.85334
0.280471
0.818514
1.80945
2.00692
2.24338
2.18686
2.19942
2.86032
2.69083
2.55899
2.38211
2.55204
2.68875
2.86081
3.0275
2.16146
2.17584
2.18739
2.12038
2.14579
1.82908
2.00077
2.23605
2.19767
2.20649
3.02631
2.85841
2.69132
3.34492
2.37751
2.54909
2.68637
2.8597
3.02736
2.18271
2.19277
2.19459
2.19411
1.98959
2.22567
2.1934
2.19286
3.61245
3.34062
3.02252
2.85603
3.34546
3.56246
4.8166
2.3692
2.54658
2.68237
2.85996
3.02871
2.09324
2.0887
2.09004
2.09221
2.09409
2.09545
5.39497
5.07755
3.65358
3.32841
3.01717
3.3516
3.52784
4.58587
5.00428
2.11806
2.10181
2.09349
2.08716
2.08103
2.0756
3.46393
5.83363
5.30378
3.68493
3.31174
3.39808
2.13834
2.126
2.11484
2.10558
2.09739
2.09021
3.53792
3.5492
6.25266
5.51765
3.70233
3.53239
2.22631
2.21167
2.1991
2.18875
2.17965
2.17174
3.18936
3.54078
3.65147
6.69745
5.77318
3.19318
2.32622
2.31369
2.30163
2.29133
2.28244
2.27495
3.12263
3.18754
3.53832
3.76316
7.19328
3.13344
3.07483
2.40769
2.40832
2.40209
2.39079
2.3792
2.36945
3.06623
3.11261
3.18554
3.52848
3.85139
3.07009
2.47131
2.501
2.49433
2.47744
3.06513
3.05742
3.10332
3.1814
3.51423
3.07078
3.18824
2.3176
2.30551
3.08445
3.06813
3.05918
3.04997
3.0934
3.17533
3.1579
3.1927
3.21532
3.09291
3.08365
3.06482
3.05428
3.04294
3.08389
3.13689
3.15955
3.19726
3.21653
3.33988
3.09804
3.09265
3.08252
3.06245
3.04997
3.0366
3.12372
3.1369
3.16019
3.20037
3.22878
3.38695
3.10057
3.0984
3.09283
3.08204
3.06056
3.04622
3.1159
3.12323
3.13649
3.16004
3.20223
3.23964
3.09868
3.10082
3.09881
3.09311
3.08183
3.05898
3.11153
3.11515
3.12248
3.13576
3.15964
3.20311
3.10101
3.09839
3.10099
3.09926
3.09352
3.08169
3.11424
3.11115
3.11439
3.12171
3.13494
3.15924
3.1035
3.10073
3.09829
3.10109
3.0997
3.09389
3.1075
3.1104
3.11455
3.11085
3.11371
3.12094
3.13429
3.10335
3.10044
3.09825
3.10116
3.10012
3.10758
3.11077
3.11469
3.11069
3.1131
3.12033
3.1032
3.10018
3.09824
3.10122
3.10767
3.11111
3.11475
3.11059
3.11253
3.10308
3.09995
3.09823
3.10775
3.11141
3.11478
3.11051
3.10296
3.09974
3.10781
3.11169
3.1148
3.10285
3.10787
3.11195
0.611872
0.921024
2.1209
2.05031
1.83001
1.80102
1.83257
1.36904
1.47457
1.26355
1.80882
1.85002
2.14478
2.14369
2.16541
2.16156
2.10572
2.08036
2.01317
1.95876
1.74479
1.56626
1.91247
1.84332
1.99339
1.99089
1.88165
2.10612
2.10791
2.14099
2.15624
2.16324
2.12634
2.0812
2.09202
2.00125
1.94344
2.13243
2.226
2.11442
2.36213
2.27295
2.13648
2.07567
4.46956
4.70425
3.32631
2.5499
2.45666
3.17347
3.02227
2.68281
2.64617
2.96513
2.8655
2.80925
2.14183
2.11386
2.12915
2.17199
2.22536
2.21785
2.20871
2.20969
2.26271
2.16366
2.45114
2.39418
2.28199
2.29788
3.9684
3.53519
3.45027
3.98475
3.79614
3.42527
3.28035
3.30993
3.16904
2.6205
2.52744
3.08313
2.97607
2.88834
2.81516
2.74295
2.14561
2.16418
2.19144
2.24985
2.27616
2.34398
2.3688
2.56627
2.41773
2.36462
2.65328
2.48409
2.42296
3.6696
3.53954
3.48914
3.52738
3.44773
3.36963
3.2276
3.17437
3.05135
2.96042
2.87875
2.73929
2.70054
2.23576
2.25168
2.27588
2.36656
2.38524
2.43632
2.47435
2.58765
2.53957
2.80857
2.73291
2.59624
2.54055
3.18401
3.31863
3.32911
3.35971
3.27919
3.20678
3.11484
3.03136
2.89168
2.97755
2.91227
2.33684
2.55177
2.37802
2.39065
2.43921
2.45234
2.51736
2.85222
2.69174
2.73482
2.88256
2.59701
2.70576
2.67985
2.88288
3.12801
3.15297
3.00083
2.96645
3.08547
3.03096
3.19325
3.24013
3.21769
3.00976
2.98404
3.17393
3.02778
3.04245
2.42676
2.61962
2.53563
2.59433
2.47582
2.47892
2.51115
2.74684
2.81499
2.86857
2.92058
2.67821
2.75336
2.70903
2.91802
2.97932
3.03652
3.03243
3.09735
3.14434
3.12457
3.06825
3.06562
3.07229
3.05994
3.08176
3.12734
3.05153
3.07592
3.03792
3.07595
3.07691
3.09098
3.0734
3.06652
3.07113
2.55992
2.4532
2.52476
2.63814
2.6575
2.53151
2.54418
2.63086
2.94428
2.79783
2.83859
2.67713
2.79816
2.98255
2.96402
3.04149
3.07032
3.09723
3.14038
3.14495
3.20287
3.22705
3.22748
3.19777
3.16942
3.18967
3.14315
3.20321
3.18234
3.18555
3.14436
3.11849
3.10759
3.05705
3.09835
3.10035
3.12571
3.09695
3.07061
3.06113
3.06646
3.06333
3.06714
3.09311
3.2388
2.4496
2.33456
2.4167
2.56386
2.59295
2.67016
2.84041
2.82918
2.86794
3.11052
3.00033
3.00884
3.2708
3.16376
3.14121
3.30525
3.27936
3.36816
3.16556
3.1342
3.16563
3.15391
3.15736
3.08085
3.08245
3.13236
3.10818
3.11378
3.08886
3.06201
3.09259
3.09859
3.0873
3.09074
3.10224
3.37945
3.18473
3.06706
3.0238
3.02726
2.98073
2.77735
3.02487
3.32123
3.09142
3.09109
3.14633
3.13236
3.13896
3.12842
3.13778
3.09343
3.09131
3.12693
3.11504
3.10228
3.09168
3.10297
3.08922
3.5424
3.09772
3.09764
3.09743
3.09848
3.09951
3.10038
3.12716
3.11436
3.12568
3.12351
3.12478
3.09822
3.10539
3.10044
3.11335
3.11555
3.09937
3.10183
3.10022
3.10049
3.09944
3.10026
3.11776
3.11477
3.1162
3.11661
3.11622
3.10235
3.10476
3.10814
3.10972
3.11285
3.11173
3.10186
3.10302
3.10119
3.10177
3.11238
3.11226
3.1104
3.10534
3.10965
3.10718
3.11343
3.1121
3.10365
3.10516
3.10735
3.10991
3.10955
)
;

boundaryField
{
    movingWall
    {
        type            zeroGradient;
    }
    fixedWalls
    {
        type            zeroGradient;
    }
    frontAndBack
    {
        type            empty;
    }
    defaultFaces
    {
        type            empty;
    }
}


// ************************************************************************* //
