/*--------------------------------*- C++ -*----------------------------------*\
  =========                 |
  \\      /  F ield         | OpenFOAM: The Open Source CFD Toolbox
   \\    /   O peration     | Website:  https://openfoam.org
    \\  /    A nd           | Version:  8
     \\/     M anipulation  |
\*---------------------------------------------------------------------------*/
FoamFile
{
    version     2.0;
    format      ascii;
    class       volScalarField;
    location    "13000";
    object      nut;
}
// * * * * * * * * * * * * * * * * * * * * * * * * * * * * * * * * * * * * * //

dimensions      [0 2 -1 0 0 0 0];

internalField   nonuniform List<scalar> 
4109
(
0.000666251
0.000661137
0.000658994
0.000666487
0.000669132
0.000677725
0.000672309
0.000677834
0.000675094
0.000656967
0.000666836
0.000678393
0.00066775
0.000671225
0.000676896
0.000677629
0.000666092
0.00067377
0.00067917
0.00067574
0.000660309
0.000678075
0.000675373
0.000678084
0.000673687
0.00066815
0.000656639
0.00067274
0.000677475
0.000681392
0.000677358
0.00067659
0.000669905
0.000671165
0.00067748
0.000682464
0.000673898
0.000667083
0.000667016
0.00066975
0.000667234
0.000662747
0.000674091
0.000681481
0.000678126
0.00148315
0.000834764
0.000677923
0.000677392
0.00066401
0.000673181
0.000677458
0.000676978
0.000672719
0.000675528
0.000660628
0.000660606
0.000678152
0.00067661
0.000669795
0.000675943
0.00196286
0.000684656
0.000680092
0.000679294
0.000741804
0.00123254
0.000678716
0.00067353
0.00066074
0.000671611
0.000678935
0.000689437
0.000677356
0.000679782
0.000673425
0.000670766
0.000667693
0.000647667
0.000675102
0.000679321
0.000679842
0.000675676
0.000668537
0.000726752
0.000741525
0.00152884
0.00193107
0.00194651
0.000684497
0.000685493
0.000680569
0.000680244
0.00068043
0.000680317
0.000942857
0.000676796
0.000663067
0.00069215
0.000686003
0.000682332
0.000686539
0.000692451
0.000684845
0.000673051
0.000676308
0.00067447
0.00066681
0.000657606
0.000678676
0.000651998
0.000680809
0.00068068
0.000677074
0.000670759
0.00210017
0.000824444
0.000992977
0.00126649
0.00196983
0.00201129
0.000668951
0.000687798
0.000689215
0.000682885
0.000682043
0.000681575
0.000676994
0.000937145
0.000657079
0.000665115
0.000692982
0.000689521
0.000694141
0.000692902
0.000681226
0.000689443
0.000676521
0.000673636
0.000671367
0.000659636
0.000677544
0.000682082
0.000681496
0.000682111
0.000678206
0.00067111
0.0017578
0.00102416
0.00194697
0.0013118
0.00201077
0.000801697
0.000690524
0.000688852
0.000683249
0.000682933
0.000682979
0.000681023
0.00066557
0.000818526
0.000635775
0.000694228
0.000690487
0.000696296
0.000694303
0.000695497
0.000696317
0.000680837
0.000679232
0.000677006
0.000671178
0.00065571
0.000680028
0.000674239
0.000683537
0.000683208
0.000678961
0.000673497
0.00118951
0.00227663
0.00121376
0.00194052
0.00199601
0.000750676
0.000685814
0.000686142
0.000684843
0.00068279
0.000684422
0.000668604
0.000860114
0.000634044
0.000688896
0.000689207
0.000697156
0.000692025
0.000697555
0.000700321
0.000691743
0.000685022
0.000679225
0.000676846
0.000673378
0.000662496
0.000682526
0.000676095
0.000684285
0.000684251
0.000681517
0.000673603
0.00116433
0.00214264
0.00198166
0.00117128
0.00202798
0.000748139
0.000685986
0.00068805
0.000685623
0.000671571
0.000858367
0.000647799
0.000689095
0.000691109
0.000692439
0.000692303
0.000695298
0.000700714
0.000698417
0.000702046
0.00068664
0.000682463
0.000679869
0.00067493
0.000659731
0.00068527
0.000672475
0.000685586
0.000685891
0.00068237
0.000683524
0.000676448
0.0010978
0.00216678
0.00120795
0.00196799
0.00201428
0.000727701
0.000688585
0.000688749
0.000679212
0.000857244
0.000655258
0.000692144
0.00069162
0.000694055
0.000695813
0.000695599
0.000695854
0.000701318
0.00070361
0.000696693
0.000693042
0.0006823
0.000678394
0.000666235
0.000683505
0.000688394
0.000674531
0.000687144
0.000685075
0.00067634
0.000685538
0.00218344
0.0010474
0.00198895
0.00118719
0.00203993
0.000725477
0.000782843
0.000674348
0.000680934
0.000851152
0.00065708
0.000692622
0.000690042
0.000694584
0.000698564
0.000699208
0.00069712
0.000698764
0.000704659
0.000703081
0.000707616
0.000698337
0.000692275
0.000662486
0.000680377
0.000675023
0.000684956
0.000685325
0.000692615
0.000673944
0.000690215
0.00067952
0.000687189
0.00101648
0.00217071
0.00196066
0.00114786
0.002015
0.000712753
0.000754227
0.000791965
0.000796536
0.000776138
0.000781047
0.000789428
0.000933763
0.000657994
0.00063011
0.000676564
0.000661396
0.000688513
0.000694437
0.000701275
0.000696714
0.000699048
0.000710218
0.000699522
0.000705478
0.000710252
0.000707384
0.000699009
0.000706458
0.000701032
0.000673307
0.000677399
0.00068629
0.000688455
0.000679285
0.000694702
0.00067722
0.00069102
0.000689164
0.000985887
0.00223342
0.00196208
0.000704624
0.000781649
0.000845627
0.000776562
0.000788894
0.000787184
0.000805403
0.000707786
0.000723057
0.000731182
0.000762507
0.000766352
0.000739405
0.000774973
0.000783626
0.00147098
0.000617696
0.000601113
0.000642124
0.000694911
0.000712885
0.00069793
0.000699944
0.000702225
0.000700739
0.000709239
0.000702444
0.000709218
0.000715881
0.00071441
0.000708488
0.000719718
0.000730565
0.000729091
0.000666373
0.000682993
0.000689837
0.00068867
0.000682667
0.000690363
0.000696157
0.000674258
0.000694434
0.000954438
0.00236972
0.000812917
0.000817778
0.000783554
0.000782797
0.000801207
0.000722358
0.000710015
0.000739573
0.00072885
0.00073474
0.000743961
0.000750938
0.00078008
0.000773021
0.000771031
0.00251418
0.00108347
0.000550404
0.000616972
0.00068484
0.000713753
0.000713381
0.000700474
0.000704156
0.000700361
0.000702779
0.00070872
0.000703469
0.000718359
0.000718383
0.000723985
0.000723503
0.000728303
0.000726314
0.000678461
0.000685221
0.000693821
0.000693995
0.000691276
0.000682441
0.00069246
0.000696406
0.000699829
0.000700012
0.000676527
0.000982035
0.000792404
0.000845205
0.000813598
0.000783767
0.000789003
0.000800714
0.000729181
0.000719264
0.000725845
0.00073684
0.000740067
0.000740451
0.000729982
0.000732529
0.000734725
0.000755152
0.000775065
0.000770398
0.000767088
0.00240628
0.00188759
0.000629096
0.000630265
0.000682898
0.000713236
0.00071153
0.000699833
0.000703763
0.000705577
0.000704536
0.000706444
0.000716621
0.000717352
0.00072241
0.000722517
0.000722847
0.000726497
0.000672546
0.000695166
0.000691414
0.000696601
0.000697502
0.000685975
0.000685736
0.000693737
0.000697295
0.000689702
0.00150554
0.00177884
0.000703742
0.000651936
0.000816201
0.0008158
0.000834058
0.000843411
0.000818474
0.000779392
0.000787528
0.000804595
0.000732342
0.000729804
0.000734656
0.00074018
0.000749291
0.000738791
0.000754095
0.000735516
0.000741201
0.000764273
0.000759209
0.000770821
0.000774489
0.00278693
0.00217932
0.00237026
0.000591732
0.000604262
0.000676026
0.000707724
0.000710786
0.000703374
0.000708562
0.00070566
0.000706809
0.000712341
0.000715506
0.000717361
0.000720665
0.000723511
0.00072844
0.000729592
0.000686519
0.000689663
0.000704265
0.000697061
0.000696096
0.000696621
0.000699744
0.000705148
0.000689766
0.000692914
0.000650514
0.000609085
0.000833277
0.000811154
0.000822821
0.000772177
0.000753121
0.000853262
0.000810039
0.000783689
0.000786126
0.000799478
0.000735317
0.000733734
0.000732548
0.000762816
0.00074474
0.000749484
0.000739535
0.000741817
0.000760119
0.000755396
0.000767055
0.000773012
0.000721454
0.00284965
0.00248795
0.00250252
0.000636219
0.000600582
0.000674867
0.000708724
0.000711171
0.000707912
0.000700742
0.000709742
0.000713253
0.000715882
0.000718168
0.000720999
0.000724378
0.000726664
0.00073068
0.000732651
0.000677461
0.000699524
0.000701348
0.00070218
0.000701214
0.000703283
0.000702603
0.000701552
0.000690968
0.000698237
0.000698535
0.000682293
0.000833755
0.000762114
0.000775929
0.000825512
0.000768338
0.000858778
0.000806156
0.000785537
0.000791953
0.000800142
0.000808147
0.000738785
0.000736168
0.000736588
0.000732746
0.000742885
0.000752132
0.000748784
0.000759373
0.000764204
0.00077204
0.000772974
0.00069963
0.00290529
0.00258047
0.00264796
0.000610381
0.00058957
0.000668028
0.000714169
0.000709997
0.000712516
0.000707618
0.000714456
0.000718744
0.000723482
0.000719201
0.000724659
0.00072971
0.00072924
0.000734195
0.000737175
0.000690588
0.0006943
0.000709379
0.000707811
0.000704253
0.000705805
0.000709921
0.000693728
0.000695727
0.000699241
0.000655377
0.00082534
0.000807001
0.000754352
0.000745641
0.000768304
0.000808853
0.000760515
0.000818821
0.00084857
0.000783231
0.000794061
0.00079613
0.000809212
0.000741998
0.000737882
0.0007391
0.000738968
0.000738733
0.00074731
0.000747499
0.000745284
0.000756144
0.000765072
0.000775426
0.00077977
0.000796917
0.00293708
0.00277244
0.0026717
0.000639384
0.000581262
0.000682173
0.000715726
0.000712734
0.000705269
0.000715765
0.000719124
0.000722538
0.000720519
0.000726678
0.000731715
0.000734375
0.000735656
0.000738371
0.000685476
0.000706242
0.000708059
0.000694955
0.000708171
0.000706522
0.000708098
0.000704476
0.000699446
0.000700364
0.000650385
0.000845329
0.000821365
0.000823159
0.000792267
0.000736472
0.000737744
0.000751785
0.000773107
0.000801711
0.000773511
0.000735647
0.000829516
0.000837311
0.000849638
0.000782745
0.000796472
0.000798009
0.000798372
0.000743635
0.000740386
0.000737116
0.000738386
0.000747728
0.000753438
0.000746811
0.000783374
0.000761238
0.000761566
0.000773242
0.000721073
0.00298096
0.00287848
0.00282532
0.00068257
0.000613408
0.000593694
0.000721208
0.000712279
0.000722611
0.000718751
0.000725871
0.000726004
0.00072307
0.00073246
0.000734351
0.000735742
0.000700274
0.000704206
0.00071307
0.000697666
0.000700463
0.0007123
0.000707509
0.000709266
0.000715087
0.000700225
0.000645624
0.000694302
0.000705104
0.00082477
0.000810524
0.000811036
0.00078288
0.000733993
0.00075163
0.000771076
0.000765716
0.000792585
0.000723135
0.00072049
0.000719676
0.000711725
0.000703351
0.000833502
0.000814181
0.000830033
0.000815876
0.000786427
0.000785195
0.000787096
0.000784132
0.000745602
0.000741332
0.000743363
0.000755038
0.00075122
0.000749793
0.000743091
0.000772467
0.000772577
0.00076588
0.000769388
0.000862109
0.00308138
0.00301774
0.00266127
0.000600225
0.000589042
0.000716572
0.000668524
0.00073337
0.00072129
0.000731015
0.000734068
0.000737598
0.000699793
0.000716519
0.000699384
0.000702589
0.000708991
0.000713348
0.000710726
0.000712196
0.000647697
0.000700408
0.000704605
0.000705744
0.000704582
0.000810358
0.000803001
0.000801587
0.000773699
0.000731446
0.000758601
0.000788226
0.000758369
0.000739198
0.000722786
0.000722326
0.000714225
0.000711871
0.000701136
0.000712633
0.000819152
0.000851431
0.000813152
0.000820597
0.000772634
0.000775945
0.000779165
0.000764174
0.000744146
0.000743613
0.00075278
0.000747538
0.000753148
0.000748821
0.000747912
0.000773077
0.000774199
0.000764009
0.000600637
0.00301906
0.00303504
0.00271891
0.000584667
0.000576769
0.000739581
0.00104332
0.000729139
0.000734089
0.000737341
0.000726353
0.000701943
0.000705362
0.000719139
0.000713343
0.000717108
0.000710645
0.000668249
0.000709485
0.000715242
0.000722547
0.000798206
0.000800707
0.000795473
0.000791689
0.000765053
0.00076085
0.000779182
0.000751578
0.000743675
0.000753169
0.000736905
0.000726932
0.000734466
0.000729807
0.00072856
0.000729323
0.000780501
0.00080262
0.000785539
0.000810352
0.000764549
0.00076335
0.000772525
0.000767059
0.000786337
0.0007447
0.000759009
0.000754338
0.000753462
0.000751402
0.000747542
0.000761087
0.000763733
0.000762832
0.000652012
0.00316734
0.00311441
0.00308797
0.000521779
0.00073076
0.000623785
0.000737305
0.00073959
0.000704122
0.000706801
0.000713763
0.000716703
0.000718302
0.000715131
0.000681463
0.000709618
0.000731107
0.000706684
0.000796965
0.000794569
0.000788689
0.000778046
0.000756886
0.000774881
0.000746095
0.000767532
0.000764999
0.00075651
0.000736836
0.000740971
0.000751557
0.000743503
0.000747355
0.000811957
0.000786015
0.000803334
0.000757013
0.000755443
0.000762665
0.000778092
0.000778295
0.000754647
0.000751564
0.000747882
0.000756304
0.000753959
0.000752845
0.000541468
0.00315495
0.00451629
0.000982558
0.00074727
0.000624907
0.000742948
0.000710469
0.000723582
0.000717952
0.000724023
0.000714952
0.000687638
0.000709299
0.000711613
0.000785508
0.000782357
0.000777861
0.000770986
0.000751427
0.000740671
0.000736378
0.000731843
0.000728245
0.000711949
0.000714869
0.000724374
0.000717777
0.00072109
0.000778716
0.000794243
0.000788784
0.00075298
0.000759067
0.000774433
0.000752273
0.000774514
0.000752665
0.000748298
0.000751739
0.000750803
0.000752074
0.000756339
0.00543115
0.00515312
0.00141624
0.000765334
0.000573588
0.000718993
0.000721464
0.000716395
0.000720209
0.000692806
0.000715807
0.000728339
0.00078169
0.000784
0.000769992
0.000762461
0.000745371
0.000741587
0.000736439
0.000733801
0.000716941
0.000721389
0.000729071
0.000722717
0.0007273
0.000768414
0.000776976
0.000780054
0.000761136
0.000763822
0.000753084
0.000769159
0.000747995
0.000747102
0.00074655
0.000749367
0.00112691
0.00097912
0.00628492
0.00682776
0.00239461
0.00122807
0.000722932
0.000720011
0.00072759
0.000725511
0.00063207
0.000724663
0.0007265
0.000766125
0.000767332
0.000764501
0.000760206
0.000752361
0.000751606
0.000743994
0.000733393
0.000730727
0.000744563
0.000738681
0.000737047
0.000768885
0.000764093
0.000769744
0.000759114
0.000750434
0.00075362
0.000760967
0.000871575
0.000966701
0.00155522
0.00833045
0.008241
0.00135778
0.00103473
0.00190874
0.00072432
0.000722461
0.00072668
0.000734782
0.000564318
0.000728245
0.000724397
0.000769563
0.000767398
0.000759356
0.000754433
0.000749872
0.000746371
0.000731887
0.00073398
0.000742773
0.000739921
0.00073696
0.000766272
0.000765846
0.000757014
0.000754796
0.000754962
0.000758226
0.000576017
0.000754681
0.000793178
0.00245509
0.00119625
0.000836341
0.00188686
0.00179721
0.000728773
0.000725083
0.000749324
0.000536235
0.000730773
0.000726193
0.000755612
0.000757067
0.000754632
0.000749544
0.000747144
0.000729115
0.000736722
0.000742527
0.000741542
0.000736524
0.000765151
0.000762563
0.00074943
0.000763754
0.000750748
0.000752234
0.000473559
0.000481766
0.000625513
0.00061266
0.000562113
0.00184247
0.000996397
0.000638729
0.00161906
0.00166801
0.000729454
0.000736964
0.000767434
0.000732453
0.000731859
0.000731431
0.000756101
0.000749956
0.000748684
0.000743728
0.000737027
0.000732884
0.000743406
0.000739525
0.000737736
0.000760134
0.00074873
0.000759779
0.00074733
0.000747855
0.000374649
0.00038717
0.000487809
0.000432016
0.0016363
0.000407131
0.00191225
0.00153351
0.000776439
0.000447343
0.00133272
0.00152389
0.000725594
0.000745426
0.000731102
0.000733569
0.000735267
0.000750786
0.000749783
0.00074919
0.000745053
0.00073795
0.000737602
0.00074393
0.000740872
0.000739947
0.000755115
0.000745843
0.00074283
0.00138571
0.000288043
0.000294389
0.000346603
0.000258381
0.00141385
0.000280811
0.00197275
0.00159882
0.00122113
0.000550758
0.000267538
0.00103011
0.00136441
0.000739035
0.000729006
0.000735014
0.000731126
0.000740005
0.000742351
0.000745424
0.000743557
0.000736357
0.000737008
0.000743285
0.000740252
0.000740386
0.00140427
0.00115318
0.000214319
0.000204306
0.000207655
0.000103095
0.00116624
0.000184125
0.00202849
0.00164695
0.00128529
0.0009222
0.000332123
0.000108732
0.000727878
0.00118284
0.00166806
0.00114089
0.000939107
0.000150934
0.000119893
8.13987e-05
7.24928e-06
0.000908325
0.000109792
0.00223973
0.00169705
0.0013235
0.000980177
0.000643995
0.000138634
8.72213e-06
0.000443104
0.000977888
0.00198422
0.00134288
0.00092215
0.000734579
9.27026e-05
4.46538e-05
4.63561e-06
0.000653071
5.769e-05
0.00125543
0.0019472
0.00136939
0.00100913
0.000691553
0.000393031
1.45479e-05
0.000197811
0.00276933
0.00155785
0.00105632
0.000727704
0.000534639
3.76783e-05
1.52108e-06
0.00040804
3.12275e-05
0.00113318
0.000963712
0.00160769
0.00105064
0.000712234
0.000426898
0.000178181
3.37933e-05
0.00417871
0.00216851
0.00120489
0.000813254
0.000540885
0.000341864
1.0854e-06
0.000186948
0.00141741
0.000947405
0.00071663
0.00124652
0.000746527
0.000440617
0.000196619
2.7293e-05
0.00427434
0.00364325
0.00163187
0.000910883
0.000603426
0.000358466
0.000162513
2.63213e-05
0.0018398
0.00121074
0.000772522
0.00050729
0.000886758
0.000465214
0.000204862
3.21008e-05
0.00532813
0.00350896
0.00304106
0.00117566
0.00065893
0.000410188
0.000182419
2.42964e-05
0.00217773
0.00146717
0.00100063
0.000604832
0.000331423
0.000550662
0.000218686
3.50851e-05
0.00461748
0.0043724
0.00272059
0.00239713
0.000806634
0.000451682
0.000227785
3.48753e-05
0.00236272
0.00172914
0.00112093
0.000785354
0.000441655
0.000187983
0.000260364
3.95308e-05
0.00399283
0.00394056
0.00326594
0.00197058
0.00177548
0.000508069
0.000274866
6.33663e-05
0.00238552
0.00187166
0.00131698
0.000808136
0.000560843
0.000285437
7.84646e-05
5.33511e-05
0.00381866
0.00335577
0.00329945
0.00213882
0.00131194
0.00120547
0.000284636
9.61639e-05
0.00222806
0.00189038
0.00142249
0.000947961
0.000533817
0.000326993
0.000130726
1.52155e-05
0.00377112
0.00320424
0.00268519
0.00268343
0.00119632
0.000805253
0.000701854
0.000121565
0.00186881
0.00177236
0.00143747
0.001022
0.000626242
0.000301698
0.000124395
1.38433e-05
0.00392942
0.00316372
0.00256974
0.00202955
0.00210585
0.000549708
0.00045575
0.000266307
0.00142729
0.00149031
0.00135219
0.00103345
0.000674088
0.000354724
0.000117245
9.3881e-06
0.0043779
0.00327637
0.00253587
0.00195173
0.00141731
0.00149707
0.000197811
0.000232874
0.00109242
0.00121613
0.00113908
0.000975077
0.000682228
0.000381309
0.000139625
9.3943e-06
0.00527767
0.00364324
0.00261097
0.00192505
0.00137206
0.000874735
0.000719248
5.08996e-05
0.00125138
0.00091351
0.00100257
0.000821977
0.000645287
0.000386359
0.000150524
1.31708e-05
0.00434484
0.00457102
0.00290423
0.00196933
0.00135232
0.00085233
0.000429137
0.000148433
0.00220867
0.000961931
0.000746219
0.000784768
0.000543506
0.000366315
0.000152846
1.51733e-05
0.00424314
0.00363948
0.00381585
0.0021701
0.00137395
0.000838648
0.000418717
0.000124575
0.00202469
0.00191168
0.000713175
0.000585213
0.000558059
0.000307638
0.000144953
1.56538e-05
0.00261969
0.00368705
0.00291081
0.00305466
0.00148409
0.000846772
0.000410359
0.000120091
0.00194528
0.00168952
0.00157265
0.000503687
0.00042746
0.000324367
0.000120221
1.42486e-05
0.00189688
0.00202235
0.003061
0.00221339
0.00232144
0.000885511
0.00041117
0.000115751
0.00187624
0.00161787
0.00135866
0.00121491
0.000328707
0.000275835
0.000123399
1.00552e-05
0.00165662
0.00148235
0.00151846
0.00243004
0.0015804
0.0016355
0.000421849
0.000113383
0.00181154
0.00156268
0.00129531
0.00103903
0.000861641
0.000186339
0.000125344
9.38958e-06
0.0014187
0.00132872
0.00113604
0.00109749
0.00181031
0.00101884
0.000946105
0.000126493
0.00191329
0.00186857
0.00150148
0.00125167
0.00098449
0.000736121
0.000533215
7.71244e-05
1.25973e-05
0.00139197
0.00115818
0.00105001
0.000841186
0.000746829
0.00123763
0.00055819
0.000236997
0.00137002
0.00179337
0.00159703
0.00119073
0.00095159
0.000692448
0.00045708
0.000249944
1.3965e-05
0.00161552
0.00115773
0.000937472
0.000820492
0.000598857
0.000437643
0.000659572
0.000213931
0.000565719
0.00120787
0.00119359
0.00165774
0.00131048
0.000896206
0.000669363
0.000426046
0.000213233
4.94528e-05
0.00140792
0.00094234
0.000736592
0.000616213
0.000407375
0.000219538
0.000143669
0.0004081
0.00050138
0.00116315
0.00101654
0.000985545
0.00150878
0.00100967
0.00062428
0.000411445
0.00019641
3.72675e-05
0.000630443
0.000940812
0.00116918
0.000736953
0.000546014
0.000424893
0.000248699
8.27616e-05
0.0002799
0.000399577
0.000994823
0.000819457
0.000762995
0.00134487
0.000710763
0.000380246
0.00018812
3.2126e-05
0.000523464
0.000815844
0.000914566
0.000536579
0.000361796
0.000235152
8.95058e-05
0.000183369
0.000308767
0.000814237
0.000623512
0.000537591
0.00116068
0.000430458
0.000171683
2.9363e-05
0.000419002
0.000677278
0.000659849
0.000343236
0.000183984
6.41726e-05
0.00010972
0.000231061
0.000627633
0.000434803
0.000321846
0.000953833
0.00018985
2.53499e-05
0.000317758
0.000528757
0.000413388
0.000163432
3.58538e-05
5.94095e-05
0.000163906
0.000441728
0.000258553
0.000132436
3.0882e-05
0.000220572
0.000376409
0.000190172
2.46941e-05
3.2233e-05
0.000101572
0.000263612
0.000103706
1.30161e-05
0.000130303
0.000226753
2.7357e-05
4.18983e-05
0.000105304
7.6926e-06
4.96141e-05
9.05147e-05
1.35897e-06
7.5285e-06
1.96847e-06
5.85678e-06
0.000739589
0.000739076
0.00074065
0.00074089
0.000741773
0.000740938
0.00074117
0.000742203
0.000740033
0.000738884
0.000740173
0.000740613
0.000741475
0.000741383
0.000742104
0.000744858
0.000758704
0.00076372
0.000768593
0.000778112
0.000782258
0.000744007
0.000747463
0.000741892
0.000743739
0.000742493
0.000740683
0.000742164
0.00074359
0.000741023
0.000794567
0.000798704
0.000740012
0.000740072
0.000740966
0.000741166
0.000742292
0.000742076
0.000745556
0.000748095
0.000751271
0.00075331
0.000756807
0.000764211
0.000769968
0.000777103
0.000789061
0.000794277
0.000819027
0.000820905
0.00075011
0.000753172
0.000755784
0.000759523
0.00076407
0.000771454
0.00078081
0.000743745
0.000747903
0.000741683
0.000742634
0.000742626
0.000740875
0.000743438
0.000744628
0.000742381
0.000778183
0.000786136
0.000840031
0.000848979
0.000808737
0.000808837
0.00083325
0.000739875
0.000740623
0.000741242
0.000742456
0.000743902
0.000745489
0.000749507
0.000751042
0.000757961
0.000759939
0.000764549
0.000771527
0.000786371
0.000796645
0.000804363
0.000814313
0.000830824
0.000834829
0.000860021
0.000869396
0.000906239
0.000899673
0.000922588
0.00074704
0.000751964
0.000753484
0.000758211
0.000763798
0.000743759
0.000746852
0.000741632
0.000741952
0.00074358
0.000741548
0.000744497
0.000744467
0.000744745
0.000763727
0.000779969
0.000780905
0.000803399
0.00081149
0.000905787
0.000853014
0.000892347
0.000835392
0.000850291
0.000742835
0.000743116
0.000745347
0.000746142
0.000750066
0.00075064
0.000757498
0.000755996
0.000766116
0.000762454
0.000776165
0.000779646
0.000815994
0.000810465
0.000826972
0.00084767
0.000854523
0.000865853
0.000886004
0.000897407
0.000951089
0.000952243
0.000999625
0.0010187
0.000982425
0.00102512
0.00103151
0.00122733
0.000746523
0.000751755
0.000753077
0.000756984
0.00074594
0.000745379
0.000743832
0.000746526
0.000742155
0.000741971
0.000744434
0.000743745
0.000742001
0.000746274
0.000745149
0.000760926
0.00077214
0.00078081
0.00152364
0.0013467
0.00149669
0.000800642
0.000803193
0.000830846
0.000844533
0.000906748
0.000919076
0.00106795
0.00097263
0.000861469
0.000910163
0.000750734
0.000748323
0.000754643
0.000751004
0.000759745
0.000754644
0.000764612
0.000759861
0.000765212
0.000770707
0.000781171
0.000783466
0.000793207
0.00081841
0.000849657
0.000824763
0.000852171
0.000972013
0.000970083
0.000964055
0.00103017
0.00202943
0.00209573
0.00175472
0.00117944
0.00117995
0.00129833
0.00124852
0.00125113
0.00137783
0.0013887
0.00186968
0.00156577
0.00355225
0.00332323
0.00339975
0.00210687
0.00299661
0.00280594
0.00246339
0.00212369
0.000746579
0.000750823
0.000750459
0.00075545
0.000744146
0.000743568
0.000743949
0.000745656
0.000742594
0.000742563
0.000742171
0.000746425
0.00074544
0.00074428
0.000743667
0.000760317
0.000774154
0.000803202
0.000781962
0.000798346
0.00366322
0.00367488
0.00284314
0.00272403
0.00214487
0.00111884
0.00136837
0.00156104
0.0019234
0.000837947
0.000839388
0.000848104
0.00084773
0.000891813
0.000904232
0.000988276
0.000979056
0.00105949
0.00363313
0.00342513
0.00126164
0.00328252
0.00288491
0.00263665
0.00148424
0.00179077
0.00189231
0.00263106
0.000779989
0.000767006
0.000783246
0.000769484
0.000785893
0.000774849
0.000789753
0.000789917
0.00079804
0.000795261
0.000810554
0.000809987
0.000848901
0.000876554
0.000930151
0.000903291
0.00112339
0.00133377
0.00110272
0.00173901
0.00142749
0.00132833
0.00163033
0.00146247
0.0014388
0.0025284
0.00305368
0.00350346
0.00304533
0.00267818
0.00227938
0.00180829
0.00167418
0.00184287
0.00201127
0.00259793
0.00190389
0.00203975
0.00348482
0.00355011
0.00361273
0.00369944
0.00357
0.00340341
0.00329248
0.00330258
0.0013859
0.00136691
0.00284757
0.00297161
0.00153388
0.00160468
0.00191215
0.00254643
0.00207325
0.00240977
0.000746573
0.000749733
0.000749102
0.000758532
0.000743209
0.000742991
0.000742975
0.000743889
0.000745189
0.000746442
0.000745197
0.000744522
0.000743516
0.000743389
0.000743107
0.00075856
0.000774532
0.000775683
0.000795173
0.000799171
0.000826479
0.000794019
0.00349727
0.00374804
0.00338345
0.00371047
0.00365108
0.00274285
0.00332363
0.00262628
0.00214937
0.00083845
0.00192005
0.00117662
0.00174334
0.00137087
0.00088351
0.000877493
0.000898072
0.000889809
0.000923827
0.000910954
0.00103685
0.00102069
0.00117495
0.00369724
0.00339334
0.00375752
0.00113376
0.00120565
0.000952392
0.00323891
0.00280117
0.00265928
0.00180215
0.00114214
0.00157861
0.00062134
0.000829453
0.0038669
0.00129105
0.000686129
0.000845132
0.000778622
0.000877854
0.000863804
0.000903244
0.000940144
0.00087949
0.000869001
0.000945811
0.000951158
0.00115033
0.0012219
0.00165793
0.00132418
0.00174511
0.00135795
0.00132046
0.0017679
0.00148373
0.00160783
0.00186862
0.00223646
0.00184403
0.00156182
0.00203051
0.00180989
0.00215255
0.00203279
0.00274163
0.00314779
0.0035406
0.00335289
0.00294898
0.0024693
0.00247812
0.00227105
0.00280534
0.00231856
0.00251922
0.00360709
0.00349865
0.00368515
0.00355564
0.00362703
0.00333156
0.00339053
0.00287819
0.00312551
0.00303484
0.00146096
0.00162585
0.00247865
0.00263932
0.00227157
0.00215562
0.00196176
0.000757591
0.000746429
0.00074885
0.000748617
0.000743112
0.00074374
0.000744833
0.000759364
0.000745966
0.000744883
0.000744501
0.000743738
0.000743854
0.000743356
0.000743828
0.00074391
0.000746841
0.000745109
0.000744488
0.000748486
0.000748046
0.000750369
0.000772579
0.000773793
0.000776622
0.000785665
0.000841941
0.000813379
0.000811627
0.000797183
0.00381279
0.00380593
0.00353965
0.00244499
0.00335135
0.00284327
0.000870408
0.000911451
0.000923697
0.00241413
0.0014206
0.0022685
0.00154752
0.000948899
0.00092942
0.00100737
0.000990031
0.00115921
0.00117436
0.00134198
0.00376701
0.00378157
0.00357358
0.00387824
0.00392562
0.0033951
0.000839973
0.000904519
0.000674475
0.00293963
0.00271248
0.00207876
0.00150878
0.000864535
0.00910211
0.00821229
0.00217141
0.000903759
0.00742742
0.00528194
0.00139153
0.000908423
0.00114797
0.00091136
0.00107602
0.000993023
0.00112768
0.00126736
0.00124416
0.00176701
0.00180553
0.00150584
0.0022373
0.00173133
0.0019495
0.00250693
0.00247186
0.00270159
0.00222128
0.0023919
0.00258318
0.00287046
0.00222833
0.0024271
0.00264715
0.0023467
0.0027331
0.00243567
0.00348775
0.00319313
0.00339267
0.00330591
0.00307401
0.00305363
0.00318713
0.00305976
0.00297716
0.00365258
0.00349424
0.00341744
0.00352634
0.00349065
0.00302797
0.00328106
0.00257294
0.00277319
0.00215364
0.00228744
0.000756057
0.000753081
0.000749742
0.000756927
0.000744114
0.000746013
0.00074756
0.0007551
0.000761037
0.000745235
0.000744221
0.000744298
0.000743616
0.000744001
0.000743631
0.00074464
0.000744799
0.000748054
0.000742031
0.000747125
0.00074847
0.00075102
0.000752569
0.000770392
0.000774803
0.000785303
0.000795013
0.000860742
0.000842535
0.000837116
0.000816671
0.00317646
0.00330765
0.00384323
0.00092432
0.000946629
0.000937747
0.0010458
0.000980598
0.00233401
0.00297718
0.00164877
0.00209614
0.00138863
0.00128928
0.00170595
0.00167496
0.0014992
0.00370204
0.00391646
0.00394087
0.00374231
0.00374646
0.00351671
0.00303001
0.00276374
0.000616008
0.000704414
0.00239329
0.00188314
0.00145908
0.000787944
0.00915338
0.0103065
0.00382655
0.00830534
0.010175
0.00984375
0.0055097
0.00340425
0.00942717
0.00895599
0.00456703
0.00252685
0.00352379
0.0020433
0.00293874
0.00185566
0.00251725
0.00252349
0.00203743
0.00300053
0.00263557
0.00261666
0.00252009
0.00265076
0.00315475
0.0030691
0.00311555
0.00334481
0.00306531
0.00279481
0.00323984
0.00341997
0.00288879
0.00317148
0.00338474
0.00308275
0.0033853
0.00361068
0.0034582
0.00359905
0.00346823
0.00357043
0.00344448
0.00345065
0.00347558
0.00355064
0.00354209
0.00315444
0.00337503
0.00269568
0.0028475
0.00216579
0.00232813
0.000759238
0.00075684
0.000756165
0.000753957
0.000749333
0.000750121
0.000753871
0.000759933
0.000764771
0.000746978
0.000741819
0.000746828
0.000742309
0.000748227
0.000744795
0.000750456
0.000746286
0.000747634
0.000749189
0.000750655
0.000752757
0.000754043
0.000775862
0.000777452
0.000785453
0.00081566
0.000802191
0.000780946
0.000912091
0.000872621
0.000876126
0.00084573
0.000951902
0.00382938
0.00337784
0.000976475
0.000937056
0.00119376
0.00115972
0.00177438
0.00218024
0.00223471
0.00211174
0.00305086
0.00257663
0.00227222
0.00251363
0.00235026
0.0039477
0.00414211
0.0037764
0.00396551
0.00323682
0.00293326
0.00237417
0.00219104
0.00188976
0.00179597
0.000608105
0.00134834
0.00767564
0.00987869
0.00229526
0.00576116
0.00967011
0.0106805
0.00857525
0.00738783
0.0107102
0.0102593
0.00694938
0.00582198
0.00571898
0.00380044
0.00439535
0.00351502
0.00316356
0.00331371
0.00416044
0.00345018
0.00393247
0.00334457
0.00360684
0.00363584
0.00388113
0.00378612
0.00375748
0.0036253
0.00356739
0.00335287
0.00366508
0.00381423
0.00345272
0.00361692
0.00372666
0.00359424
0.0037066
0.00358729
0.0035487
0.00355178
0.00364224
0.00363195
0.00361921
0.00326307
0.00342273
0.00276592
0.00293835
0.00222356
0.00239965
0.000787554
0.000664375
0.000759282
0.000760242
0.000759201
0.000757619
0.000756804
0.000754807
0.000755974
0.000758329
0.00076357
0.000763901
0.0007805
0.000747284
0.000746679
0.000748049
0.000748545
0.000751145
0.000749146
0.000750007
0.00075179
0.000753115
0.000754002
0.000755743
0.000775819
0.000799566
0.000802846
0.000848652
0.000793059
0.00079989
0.000949403
0.000896449
0.000904697
0.000850664
0.0010116
0.00115328
0.000901792
0.00389717
0.00373809
0.00191562
0.00161167
0.00242915
0.00319079
0.00318631
0.00282835
0.00299715
0.00342721
0.00363545
0.00305429
0.00384549
0.00446746
0.00305113
0.00354322
0.0025485
0.00224967
0.00181574
0.0016687
0.000596021
0.000906754
0.00597521
0.00920844
0.00156115
0.00343615