/*--------------------------------*- C++ -*----------------------------------*\
  =========                 |
  \\      /  F ield         | OpenFOAM: The Open Source CFD Toolbox
   \\    /   O peration     | Website:  https://openfoam.org
    \\  /    A nd           | Version:  8
     \\/     M anipulation  |
\*---------------------------------------------------------------------------*/
FoamFile
{
    version     2.0;
    format      ascii;
    class       volScalarField;
    location    "0.027";
    object      p;
}
// * * * * * * * * * * * * * * * * * * * * * * * * * * * * * * * * * * * * * //

dimensions      [0 2 -2 0 0 0 0];

internalField   nonuniform List<scalar> 
656
(
2.14676e-06
-0.235384
1.72748
-0.785924
0.189074
1.73016
-1.15034
-1.55215
2.0528
1.70813
1.76777
-0.437676
0.386051
1.74669
2.03246
2.25722
1.63829
1.58902
2.26627
2.39061
1.80446
1.82353
1.78876
1.81964
-0.0668547
0.616096
1.77342
2.01538
2.24873
1.84617
1.86898
2.55822
2.39533
2.38589
2.55617
2.69442
2.15932
2.1754
2.14003
1.78459
1.85505
0.281486
0.818489
1.80862
2.00524
2.24198
2.18962
2.20216
2.86732
2.69518
2.56028
2.38196
2.55403
2.69326
2.86771
3.0358
2.16497
2.17935
2.19091
2.12321
2.14935
1.82856
1.99938
2.23506
2.20119
2.21001
3.03487
2.86551
2.69561
3.35338
2.37779
2.5514
2.69101
2.8665
3.03538
2.18694
2.19703
2.19892
2.19849
1.98859
2.22507
2.19781
2.19729
3.61801
3.34928
3.03133
2.86323
3.35367
3.56783
4.82248
2.37002
2.54933
2.68715
2.86665
3.03642
2.09809
2.09354
2.0948
2.09691
2.09874
2.10006
5.39694
5.08339
3.65929
3.33726
3.0262
3.35957
3.53268
4.59149
5.00659
2.12397
2.10784
2.09951
2.09313
2.08697
2.08152
3.46626
5.83561
5.30955
3.69077
3.32078
3.40105
2.14577
2.13356
2.12248
2.11326
2.1051
2.09794
3.54043
3.5514
6.25472
5.52337
3.7083
3.5352
2.23511
2.22068
2.20829
2.19806
2.18905
2.18123
3.19279
3.54317
3.65317
6.69958
5.77887
3.19657
2.33582
2.32367
2.31189
2.3018
2.29309
2.28575
3.12707
3.19107
3.54057
3.76496
7.19543
3.13751
3.079
2.4181
2.4189
2.41302
2.4021
2.39087
2.38139
3.07085
3.11735
3.18908
3.53056
3.853
3.07356
2.4825
2.51156
2.50542
2.48926
3.06893
3.06242
3.10828
3.18493
3.51615
3.07319
3.18201
2.33647
2.32554
3.08551
3.07069
3.06328
3.05527
3.09854
3.17885
3.15342
3.18617
3.20728
3.09277
3.08469
3.06755
3.05862
3.04851
3.0892
3.1343
3.15504
3.19046
3.20838
3.32603
3.09772
3.09252
3.08358
3.06529
3.05452
3.04241
3.12224
3.1344
3.15565
3.19341
3.22
3.37114
3.10001
3.09797
3.09253
3.08307
3.0635
3.05094
3.11497
3.12173
3.13405
3.15553
3.19516
3.23032
3.0987
3.1002
3.09832
3.09283
3.08283
3.06198
3.11091
3.11434
3.1211
3.13339
3.15515
3.19599
3.1008
3.09845
3.10035
3.0987
3.09314
3.08265
3.11296
3.11059
3.11367
3.12042
3.13267
3.15479
3.10314
3.10057
3.09834
3.10045
3.09907
3.09343
3.10673
3.10946
3.11323
3.11031
3.11308
3.11974
3.13208
3.10302
3.10033
3.09829
3.10052
3.09944
3.1068
3.10976
3.11337
3.11015
3.11254
3.1192
3.10289
3.10011
3.09826
3.10059
3.10688
3.11005
3.11344
3.11005
3.11205
3.10279
3.09991
3.09824
3.10694
3.11031
3.11348
3.10996
3.10269
3.09973
3.107
3.11055
3.11351
3.10259
3.10704
3.11077
0.612679
0.920914
2.12381
2.0528
1.83235
1.80325
1.83402
1.37031
1.47495
1.26347
1.80827
1.85206
2.14853
2.14698
2.16974
2.16543
2.10972
2.08382
2.01585
1.96097
1.74603
1.56686
1.91275
1.84279
1.99242
1.99273
1.88402
2.11098
2.11299
2.1454
2.16001
2.16771
2.13019
2.08546
2.09535
2.00244
1.94446
2.13305
2.22525
2.11355
2.36312
2.27342
2.13941
2.0789
4.47448
4.70712
3.33453
2.55301
2.4576
3.18262
3.0301
2.68752
2.65035
2.97309
2.87214
2.81574
2.14759
2.12011
2.13492
2.17837
2.23062
2.22369
2.21348
2.21148
2.26596
2.1659
2.45288
2.39547
2.28654
2.3024
3.97422
3.5394
3.4549
3.98825
3.8015
3.42924
3.27963
3.32075
3.17677
2.62673
2.53231
3.08973
2.98302
2.89515
2.82169
2.74879
2.15307
2.17193
2.19812
2.25718
2.28247
2.35097
2.37421
2.56994
2.42208
2.36876
2.65777
2.48874
2.42897
3.67359
3.54289
3.49263
3.52989
3.45193
3.37476
3.23474
3.17858
3.05874
2.96761
2.88573
2.74626
2.70664
2.24452
2.2607
2.28396
2.37493
2.39245
2.44373
2.48007
2.5947
2.5463
2.81331
2.7384
2.60161
2.54718
3.18802
3.32181
3.33333
3.36393
3.28434
3.20976
3.1196
3.03834
2.89618
2.98432
2.91728
2.34619
2.55833
2.388
2.39983
2.44831
2.4601
2.52504
2.85634
2.69691
2.73968
2.8861
2.60284
2.71144
2.68596
2.88497
3.13213
3.15661
3.00095
2.96697
3.08273
3.02993
3.196
3.24339
3.2204
3.01063
2.98578
3.17736
3.03119
3.04494
2.43676
2.62653
2.54387
2.60149
2.48586
2.48814
2.52047
2.75099
2.81888
2.8714
2.92202
2.68457
2.75777
2.71422
2.9195
2.9793
3.03488
3.03104
3.09369
3.1395
3.12025
3.06644
3.0644
3.07634
3.06543
3.08594
3.13179
3.05121
3.07465
3.03818
3.07938
3.07752
3.09458
3.07552
3.06989
3.07515
2.56889
2.46542
2.53498
2.64569
2.66432
2.54194
2.55371
2.63874
2.9449
2.80173
2.8417
2.68385
2.8025
2.98236
2.9641
3.03881
3.06726
3.0931
3.13503
3.13945
3.19524
3.21834
3.21879
3.19043
3.16314
3.18287
3.13835
3.19568
3.176
3.17943
3.13989
3.1153
3.10537
3.05667
3.10007
3.10338
3.12826
3.09602
3.0734
3.06253
3.06908
3.06645
3.06982
3.09492
3.22963
2.46431
2.35351
2.43334
2.57576
2.60356
2.67804
2.84389
2.83213
2.86974
3.10603
2.99918
3.00739
3.26003
3.15704
3.13574
3.29303
3.26809
3.35326
3.16028
3.13052
3.16057
3.14948
3.15275
3.08234
3.08372
3.12905
3.106
3.11188
3.08831
3.06453
3.09321
3.09845
3.08822
3.09159
3.10222
3.36406
3.17842
3.06429
3.0224
3.02556
2.98018
2.78694
3.02489
3.30999
3.09128
3.09118
3.14207
3.12919
3.13632
3.1267
3.13491
3.0935
3.09196
3.12449
3.11335
3.10159
3.09232
3.1029
3.0894
3.5224
3.09747
3.09739
3.09719
3.09821
3.09909
3.09985
3.12511
3.11321
3.12392
3.12158
3.12304
3.09788
3.10475
3.10008
3.11208
3.1143
3.09921
3.10184
3.09984
3.10028
3.09927
3.10007
3.11641
3.11372
3.11518
3.11562
3.11503
3.10167
3.10451
3.10779
3.10862
3.11209
3.11109
3.10142
3.10252
3.10088
3.10151
3.11148
3.11148
3.1097
3.10479
3.10879
3.1065
3.1123
3.11106
3.10325
3.10466
3.10664
3.10912
3.1086
)
;

boundaryField
{
    movingWall
    {
        type            zeroGradient;
    }
    fixedWalls
    {
        type            zeroGradient;
    }
    frontAndBack
    {
        type            empty;
    }
    defaultFaces
    {
        type            empty;
    }
}


// ************************************************************************* //
