/*--------------------------------*- C++ -*----------------------------------*\
  =========                 |
  \\      /  F ield         | OpenFOAM: The Open Source CFD Toolbox
   \\    /   O peration     | Website:  https://openfoam.org
    \\  /    A nd           | Version:  8
     \\/     M anipulation  |
\*---------------------------------------------------------------------------*/
FoamFile
{
    version     2.0;
    format      ascii;
    class       volScalarField;
    location    "0.045";
    object      p;
}
// * * * * * * * * * * * * * * * * * * * * * * * * * * * * * * * * * * * * * //

dimensions      [0 2 -2 0 0 0 0];

internalField   nonuniform List<scalar> 
656
(
2.08458e-07
-0.235412
1.72848
-0.786702
0.189102
1.73112
-1.15106
-1.55285
2.05475
1.70647
1.76612
-0.438535
0.386114
1.74761
2.03427
2.2589
1.63664
1.58736
2.26816
2.39113
1.80222
1.82129
1.78652
1.81797
-0.0678201
0.61616
1.77428
2.01703
2.25017
1.84393
1.86673
2.55664
2.39608
2.38615
2.55438
2.69018
2.15672
2.17281
2.13741
1.78235
1.85341
0.280481
0.818489
1.80934
2.00671
2.24313
2.18704
2.1996
2.86074
2.69099
2.55887
2.38191
2.55201
2.68893
2.86123
3.02805
2.16171
2.17609
2.18765
2.12056
2.14604
1.82899
2.00057
2.23583
2.19793
2.20675
3.02689
2.85883
2.69146
3.34551
2.37735
2.54909
2.68657
2.86011
3.0279
2.18302
2.19309
2.19491
2.19443
1.98942
2.22548
2.19372
2.19318
3.61276
3.34123
3.02312
2.85646
3.34602
3.56276
4.81694
2.36909
2.54663
2.6826
2.86036
3.02922
2.09357
2.08903
2.09036
2.09252
2.0944
2.09576
5.39493
5.07789
3.65392
3.32903
3.01779
3.35215
3.52809
4.58619
5.00427
2.11848
2.10223
2.09391
2.08757
2.08144
2.076
3.46392
5.83358
5.30412
3.68528
3.31238
3.39814
2.13889
2.12655
2.1154
2.10614
2.09795
2.09077
3.53792
3.54917
6.25262
5.51798
3.70269
3.53243
2.22701
2.21238
2.19983
2.18949
2.1804
2.17249
3.18947
3.54077
3.65139
6.69742
5.77351
3.1933
2.32703
2.31454
2.3025
2.29222
2.28335
2.27587
3.12286
3.18765
3.53829
3.76309
7.19325
3.13365
3.07508
2.40861
2.40926
2.40307
2.39181
2.38026
2.37053
3.06652
3.11287
3.18565
3.52843
3.8513
3.07029
2.47236
2.50199
2.49538
2.47857
3.06537
3.05775
3.10361
3.1815
3.51416
3.07089
3.1874
2.31948
2.30754
3.0844
3.06827
3.05945
3.05033
3.09369
3.17543
3.15723
3.19183
3.21432
3.09276
3.08361
3.06498
3.05458
3.04333
3.0842
3.13641
3.15888
3.19635
3.21553
3.33821
3.09785
3.0925
3.08249
3.06263
3.05029
3.03701
3.12335
3.13642
3.1595
3.19944
3.2277
3.38508
3.10036
3.0982
3.09268
3.08201
3.06076
3.04656
3.11561
3.12287
3.13602
3.15935
3.20128
3.2385
3.09853
3.10059
3.09861
3.09295
3.0818
3.05918
3.11128
3.11487
3.12213
3.13529
3.15895
3.20215
3.10083
3.09825
3.10076
3.09905
3.09335
3.08166
3.11392
3.11091
3.11412
3.12137
3.13448
3.15855
3.1033
3.10056
3.09814
3.10086
3.09948
3.09372
3.10724
3.11012
3.11423
3.11061
3.11345
3.12061
3.13384
3.10315
3.10028
3.0981
3.10093
3.09989
3.10733
3.11048
3.11436
3.11045
3.11285
3.12
3.10301
3.10002
3.09809
3.101
3.10741
3.11081
3.11442
3.11036
3.11229
3.10288
3.09979
3.09808
3.10749
3.11111
3.11445
3.11027
3.10277
3.09958
3.10755
3.11139
3.11448
3.10266
3.10761
3.11164
0.611876
0.920987
2.12109
2.05046
1.83014
1.80112
1.83263
1.36907
1.47455
1.2635
1.80871
1.85011
2.14504
2.14391
2.16572
2.16183
2.10599
2.08059
2.01333
1.95888
1.74483
1.56626
1.91241
1.84321
1.99321
1.99098
1.88176
2.10645
2.10826
2.1413
2.15651
2.16355
2.12659
2.08148
2.09223
2.00126
1.94344
2.13236
2.22579
2.11424
2.36204
2.27284
2.13664
2.07585
4.46981
4.7043
3.32687
2.54999
2.45653
3.17412
3.02278
2.68303
2.64632
2.96566
2.8659
2.80963
2.14224
2.1143
2.12955
2.17245
2.22574
2.21826
2.20902
2.20972
2.26288
2.16372
2.4511
2.39412
2.28226
2.29817
3.96875
3.53538
3.45051
3.98486
3.79643
3.42542
3.2801
3.31072
3.16956
2.62092
2.5277
3.08356
2.97651
2.88879
2.81557
2.74332
2.14617
2.16476
2.19192
2.25041
2.27662
2.34451
2.36919
2.56644
2.41796
2.36483
2.65353
2.48439
2.42338
3.66977
3.53965
3.48925
3.5274
3.44791
3.36992
3.22805
3.17452
3.0519
2.96096
2.87924
2.73973
2.70092
2.23647
2.2524
2.27651
2.36724
2.3858
2.43689
2.47476
2.58815
2.54006
2.80889
2.73329
2.59661
2.54105
3.1842
3.31871
3.32931
3.35991
3.27947
3.20687
3.11507
3.03181
2.89198
2.97802
2.91261
2.33763
2.55225
2.37889
2.39142
2.43998
2.45295
2.51798
2.85249
2.69211
2.73514
2.8828
2.59742
2.7062
2.68034
2.88296
3.12823
3.15312
3.00074
2.96638
3.08508
3.03073
3.19333
3.24024
3.21776
3.00972
2.98406
3.17408
3.02795
3.04253
2.42764
2.62019
2.53632
2.59492
2.47673
2.47973
2.51197
2.74711
2.81525
2.86876
2.92062
2.67876
2.75368
2.70944
2.91806
2.97921
3.03624
3.0322
3.09688
3.14373
3.12402
3.06795
3.06538
3.07252
3.06029
3.08199
3.12759
3.05136
3.07566
3.0378
3.07611
3.07681
3.09117
3.07343
3.0667
3.07138
2.56076
2.45436
2.52574
2.63883
2.65807
2.53249
2.54505
2.63159
2.94428
2.79814
2.8388
2.67771
2.79855
2.98247
2.96394
3.04114
3.06993
3.0967
3.13973
3.14427
3.20194
3.22599
3.22643
3.19686
3.16866
3.18882
3.14252
3.20226
3.18153
3.18473
3.14376
3.11803
3.10722
3.05687
3.09835
3.10049
3.12581
3.09671
3.07073
3.0611
3.0666
3.06352
3.06728
3.09314
3.23767
2.45106
2.33647
2.4184
2.56506
2.59401
2.67091
2.84074
2.82938
2.86802
3.11001
3.0002
3.00862
3.26955
3.16295
3.1406
3.3038
3.27806
3.36642
3.16485
3.13366
3.16488
3.15325
3.15669
3.08083
3.08244
3.13186
3.1078
3.11342
3.08865
3.0621
3.09249
3.09841
3.08723
3.09067
3.10207
3.37763
3.18413
3.0668
3.02373
3.02712
2.98065
2.77856
3.02503
3.32014
3.09131
3.09097
3.14569
3.13185
3.13848
3.12806
3.13727
3.0933
3.09122
3.1265
3.11469
3.10204
3.09158
3.1028
3.08908
3.54033
3.09754
3.09746
3.09725
3.09829
3.09931
3.10016
3.12675
3.11407
3.12529
3.12312
3.12439
3.09804
3.10515
3.10024
3.11303
3.11524
3.09919
3.10166
3.10002
3.1003
3.09926
3.10008
3.11743
3.11446
3.11589
3.11631
3.1159
3.10213
3.10456
3.10792
3.10944
3.11258
3.11148
3.10166
3.1028
3.101
3.10159
3.1121
3.11199
3.11014
3.10511
3.10938
3.10694
3.11313
3.11181
3.10344
3.10494
3.1071
3.10965
3.10927
)
;

boundaryField
{
    movingWall
    {
        type            zeroGradient;
    }
    fixedWalls
    {
        type            zeroGradient;
    }
    frontAndBack
    {
        type            empty;
    }
    defaultFaces
    {
        type            empty;
    }
}


// ************************************************************************* //
