/*--------------------------------*- C++ -*----------------------------------*\
  =========                 |
  \\      /  F ield         | OpenFOAM: The Open Source CFD Toolbox
   \\    /   O peration     | Website:  https://openfoam.org
    \\  /    A nd           | Version:  8
     \\/     M anipulation  |
\*---------------------------------------------------------------------------*/
FoamFile
{
    version     2.0;
    format      ascii;
    class       surfaceScalarField;
    location    "0.034";
    object      phi;
}
// * * * * * * * * * * * * * * * * * * * * * * * * * * * * * * * * * * * * * //

dimensions      [0 3 -1 0 0 0 0];

internalField   nonuniform List<scalar> 
1107
(
0.000315986
-0.000643379
0.000633491
-0.000306099
0.000616968
-0.000300982
-2.96797e-05
0.000646647
0.00030497
0.00053856
-0.000106655
-0.000736874
-0.000968688
0.000630278
-9.76171e-05
0.000701429
0.000286065
-5.36037e-05
-1.49169e-05
-3.72552e-05
0.000683903
-3.30736e-05
1.43549e-05
-8.79363e-05
0.000180747
-0.000148802
-6.50179e-05
0.000300279
-0.000856406
-0.00126761
0.0005992
-0.000207353
0.000740015
0.000760865
-9.66914e-05
4.16809e-05
0.000814709
-9.55249e-05
3.58245e-06
-4.28312e-05
-1.13345e-05
0.000725584
0.000852749
2.98898e-05
-6.793e-05
6.44817e-05
-0.000126769
-8.65154e-05
2.51522e-05
-4.86068e-05
0.000227329
-0.000140679
-0.000213419
0.000277824
-0.000115513
0.000296547
-0.00087513
-0.00151044
0.000539381
-0.000366247
0.000758094
0.000828535
-0.000185212
0.000898785
-0.000165774
5.21631e-06
-2.28953e-05
-6.11815e-06
-2.21787e-05
0.000864641
1.02869e-05
0.000755473
0.000945483
-0.000114628
0.000962595
-3.92906e-05
0.000950932
-2.3924e-05
3.55873e-05
3.53861e-05
-7.27169e-05
-4.91847e-05
1.36152e-05
-2.68358e-05
-8.23519e-05
-0.000131043
0.000322034
-0.00021502
-0.000320434
0.000397103
-0.000190582
0.000306643
-0.00078467
0.000459673
-0.00166347
-0.000569866
0.000743001
0.000880427
-0.000307545
0.000967626
-0.000252974
2.99652e-06
-1.22766e-05
-3.12163e-06
8.79892e-05
0.000916078
-5.31353e-05
0.000853041
-1.23243e-05
0.00076576
0.00102486
-0.000171861
0.00104889
-6.33216e-05
0.00103797
4.65086e-05
0.000997932
0.000128027
-0.000118142
0.000931712
0.000184362
5.74092e-05
-0.000104119
-3.56424e-05
2.75856e-05
-1.9361e-05
1.04074e-05
-9.65765e-06
-0.000129665
-0.000216398
-6.18835e-05
-0.0001719
0.000690619
-0.000800812
0.000901543
-0.000466087
0.00100953
-0.00036096
2.20694e-06
-4.07618e-06
-9.14691e-07
0.000865055
-6.71187e-05
0.000823561
-2.36555e-05
0.000753436
0.000822169
-0.000147013
0.000256555
0.00107752
-0.000239849
0.00110808
-9.38817e-05
0.00109962
5.49647e-05
0.00105578
0.000171866
0.000972609
0.000267533
4.56213e-05
-3.0605e-05
-7.68997e-05
2.44288e-05
-1.44499e-05
1.14638e-05
-6.39601e-06
4.27854e-06
-2.47239e-06
0.000875999
-0.000651467
0.00100311
-0.000488068
8.82587e-07
-6.80224e-07
-3.21044e-08
0.000333532
0.000669655
-0.000181018
0.000790252
-7.22097e-05
0.000785346
-2.89039e-05
0.00072978
0.000826022
0.000403143
0.000622003
0.000537551
0.000387984
-0.00129465
0.00152867
0.00108125
-0.000317995
0.00112031
-0.000132937
0.00111889
5.63848e-05
0.00107385
0.000216901
0.000972188
0.000369199
-3.58352e-05
-5.57403e-05
6.09704e-05
-1.92568e-05
-3.10282e-05
-9.09031e-06
-1.65625e-05
-3.38032e-06
-8.18238e-06
-6.70902e-07
-3.38965e-06
-7.03008e-07
0.00098874
0.000344758
-0.000945514
0.000371371
-0.000996363
0.000687873
-7.8639e-05
0.000738948
-2.58109e-05
0.000700876
0.000791456
0.000583875
0.000546363
0.000782644
0.000411232
0.0016638
0.000482205
0.000917767
-5.7678e-05
-9.51878e-05
9.71255e-05
-3.12316e-05
-5.74746e-05
-1.47439e-05
-3.30502e-05
-5.45911e-06
-1.74672e-05
-1.09321e-06
-7.75555e-06
-1.79622e-06
0.000102625
0.000299482
-5.73485e-05
0.000227416
-0.000801559
0.000357754
-0.000666244
0.000680805
-2.04965e-05
0.000675066
0.000413975
0.000170855
-4.42683e-05
-0.000124825
7.39058e-05
-2.43428e-05
-7.74001e-05
-1.17173e-05
-4.56757e-05
-4.45908e-06
-2.47254e-05
-9.67316e-07
-1.12473e-05
-2.76354e-06
0.000247331
0.000201407
-0.000149256
0.000200646
-3.05788e-05
0.000136058
-0.000579863
0.000342979
-0.000328418
0.000654569
0.000295251
0.000366054
-1.44242e-05
-0.000133452
2.30513e-05
-8.18593e-06
-8.36383e-05
-4.05629e-06
-4.98053e-05
-1.62973e-06
-2.7152e-05
-3.9875e-07
-1.24783e-05
-3.16229e-06
0.000150065
0.000134929
-8.35878e-05
0.000128164
-7.67742e-05
0.000120621
-1.5142e-05
6.99349e-05
-0.000306818
0.000326151
0.00019948
0.000245836
1.41868e-05
-0.000121678
-2.59616e-05
7.218e-06
-7.66695e-05
3.22064e-06
-4.5808e-05
1.13773e-06
-2.50691e-05
1.83974e-07
-1.15246e-05
-2.97832e-06
0.000129047
7.77651e-05
-7.18832e-05
8.50473e-05
-4.04708e-05
7.36901e-05
-2.9843e-05
5.9187e-05
-4.39413e-06
1.93322e-05
0.000118191
0.000210336
-8.7945e-05
5.91241e-05
0.000147012
1.63548e-05
-3.59157e-05
-0.000102117
7.65674e-06
-6.79714e-05
3.27831e-06
-4.14295e-05
1.18293e-06
-2.29737e-05
2.27997e-07
-1.05696e-05
-2.75032e-06
3.79718e-05
-4.81518e-05
4.79445e-05
-3.47804e-05
4.85391e-05
-1.53198e-05
3.51972e-05
-5.85324e-06
1.49381e-05
-5.11943e-05
2.39107e-05
8.64077e-05
-3.14837e-05
5.69562e-05
-6.6902e-05
-1.24042e-05
-4.20533e-05
-2.78201e-06
-2.01918e-05
-5.53232e-06
1.44966e-05
-2.77191e-05
2.28244e-05
-2.30316e-05
2.68684e-05
-1.31098e-05
2.2963e-05
-3.08553e-06
9.08485e-06
5.30192e-06
-2.52183e-05
4.38271e-05
-2.16331e-06
6.82694e-06
7.1667e-06
-1.18303e-05
-1.2811e-05
5.52929e-05
-6.26737e-05
-1.83433e-05
-1.43532e-06
-8.11418e-06
1.48514e-05
2.60526e-06
-1.33269e-05
8.22551e-06
-1.31202e-05
1.24919e-05
-8.65514e-06
1.25527e-05
-2.69954e-06
5.99931e-06
1.31337e-06
4.16896e-06
-7.64564e-06
-5.74675e-07
3.34586e-06
4.05573e-06
-1.87632e-06
8.29778e-06
-1.65009e-05
1.00794e-05
-2.71384e-06
-5.44843e-07
1.82337e-06
-1.45748e-06
-4.05142e-06
1.08123e-06
-6.18261e-06
4.25868e-06
-4.887e-06
5.72153e-06
-1.82394e-06
3.29977e-06
3.16144e-06
1.6048e-06
-3.45287e-06
1.49886e-06
2.09542e-06
6.1675e-08
1.40787e-06
-7.52056e-07
2.98213e-06
6.0677e-06
-2.63285e-06
4.72136e-06
-2.34468e-05
2.13583e-05
-1.94347e-06
1.90393e-06
-2.6743e-06
-1.98545e-06
-1.68658e-08
-1.2026e-06
-1.76759e-06
3.46667e-07
-2.2706e-06
1.85527e-06
-1.02075e-06
1.47583e-06
3.50313e-06
-3.01038e-07
-4.06497e-08
2.43086e-06
6.72796e-07
1.22292e-06
9.34184e-07
2.07726e-07
4.4809e-07
-2.0326e-07
5.52532e-07
-5.71437e-07
5.29279e-06
-1.09844e-06
1.56795e-06
-2.41297e-06
-1.26895e-06
1.18746e-06
-1.32798e-06
1.08513e-07
-8.17018e-07
-6.03905e-07
5.50186e-08
-4.7035e-07
4.55082e-07
2.4786e-06
-2.08165e-06
3.10618e-06
2.43639e-06
-3.0658e-07
1.65644e-06
2.39284e-07
8.15845e-07
3.2607e-07
1.65155e-07
7.96809e-08
-1.89031e-08
-1.51819e-06
-8.53602e-07
1.27336e-06
-6.04198e-07
9.03227e-07
-7.6612e-07
6.2561e-07
-7.88744e-07
8.02414e-08
-4.37801e-07
-1.11085e-07
-1.52664e-08
1.38292e-06
-1.86861e-06
2.96429e-06
1.59008e-06
-1.23535e-06
1.5514e-06
-2.01539e-07
9.93975e-07
6.11623e-08
4.29829e-07
6.13988e-08
6.07792e-08
-2.21371e-06
-1.24949e-06
1.94501e-06
-9.47932e-07
-5.0984e-07
-3.10623e-07
4.47737e-07
-4.16602e-07
2.53472e-07
-3.84628e-07
2.70704e-08
-1.2635e-07
1.9674e-06
1.15888e-06
-1.74336e-06
7.75234e-07
-1.05377e-06
9.4104e-07
-6.24983e-07
8.86151e-07
-9.37131e-08
4.86252e-07
4.74312e-09
1.22176e-07
-2.63381e-06
-6.82609e-07
1.10271e-06
-1.47144e-06
-7.25969e-07
-5.55593e-07
-2.64864e-07
-1.41966e-07
1.73106e-07
-1.87622e-07
5.64693e-08
-9.92786e-08
-2.55969e-06
1.47569e-07
-2.21688e-07
1.15016e-06
-1.74246e-06
1.24045e-06
6.93674e-07
4.03229e-07
-5.1596e-07
5.05018e-07
-2.4385e-07
4.17289e-07
-2.47486e-08
1.26917e-07
-1.7661e-06
-3.87941e-07
-9.16643e-07
-3.64916e-07
-2.97712e-07
-1.09113e-07
-5.04115e-08
3.58991e-08
-4.28089e-08
-1.70948e-06
9.09474e-08
6.81125e-07
7.36013e-07
3.6089e-07
1.87063e-07
-1.98006e-07
2.25278e-07
-5.18388e-08
1.02166e-07
-1.11151e-06
-1.93077e-07
-5.18743e-07
-1.43883e-07
-1.34159e-07
-2.53634e-08
-6.90858e-09
-1.0695e-06
4.89453e-08
3.47633e-07
3.99257e-07
1.48696e-07
6.78724e-08
-4.06015e-08
5.03274e-08
-6.35059e-07
-7.67604e-08
-2.45687e-07
-3.23544e-08
-3.22719e-08
-6.07748e-07
2.16348e-08
1.39142e-07
1.81882e-07
3.46873e-08
9.72616e-09
-3.04465e-07
-1.79816e-08
-6.46266e-08
-2.88984e-07
6.15483e-09
3.20394e-08
4.44135e-08
-8.26081e-08
-7.6453e-08
0.000596974
-0.00138164
-0.0010665
0.000322827
-0.000539225
0.000859998
-0.00053717
0.000539564
0.00130383
-0.000764266
0.00111325
-0.000268396
0.00156916
-0.00183756
0.000502661
-0.000298151
-0.0013932
0.000628938
0.000139172
-0.000311072
-0.000400054
4.4408e-05
-0.000121308
-0.000266664
0.000330526
-0.00073058
0.00117508
-0.000844556
0.000637912
-0.000755292
0.00207149
-0.00144255
0.000233935
0.00130733
-0.0010734
0.00100918
0.000357717
0.00101593
-0.00177122
-0.000426629
-6.03373e-05
0.000229871
-0.000290208
-3.67926e-05
-0.000767373
-6.80597e-05
-0.000699313
0.00136878
-0.00143684
0.000524223
-0.00124699
0.0014221
-0.00184873
0.0003487
0.000883497
-0.000534797
-0.00124121
0.000753146
-0.00137214
0.00105414
-0.000618994
0.000980582
-0.00222758
-0.000868146
0.000859191
0.000804606
0.00177696
-0.000410221
0.000994095
-0.0014831
0.00135016
-0.000428952
-0.00115486
0.000744637
-0.000785658
-0.00131449
0.00137088
3.56694e-05
-0.00128431
0.000498655
-0.00106741
0.000303462
-0.000193083
0.000131862
-0.000324945
-0.00056745
0.000278276
-0.000845726
-0.00115856
0.000196041
-0.0013546
-0.00203154
0.00113094
-0.00199909
-0.000596142
-2.28524e-05
-0.000653005
0.000224053
-0.000675858
-3.59258e-05
-0.00199561
-0.00203501
-0.00089587
0.00170048
-0.000113225
0.00088087
0.000285366
0.00149159
0.00198584
0.00166245
-1.65782e-05
0.000897448
-0.00100086
0.000984279
-0.00025622
-0.000564501
0.000600171
-0.000340448
-0.000952804
0.000696584
-0.000454149
-0.000781107
0.000326958
-0.000477645
0.000122526
-0.00025104
7.99857e-05
-0.000331025
-0.00076574
3.25172e-05
-0.000798258
-0.00132209
-0.000354123
-0.000967963
-0.00234973
0.000899434
-0.00123988
0.000223576
-0.00181143
-0.00143921
0.000199333
0.000925121
-0.00273656
-0.00142461
0.000548693
0.00143715
0.00144614
-0.00100219
0.00136824
0.000660257
0.00209741
0.000112606
0.00133353
0.00109689
6.24367e-05
0.00103445
0.000759021
0.000244143
0.000514878
0.000571101
0.000693627
-0.000745588
-0.000307974
8.91347e-06
-0.000316888
-0.000789344
-0.000349356
-0.000439988
-0.00131732
-0.000425334
-0.000891985
-0.00184995
0.00201834
-0.00181901
-0.000718215
0.00173385
-0.00247944
-8.5154e-05
0.00128395
-0.00200217
-0.000565991
-0.000609729
0.000855566
0.000758514
-0.00119699
0.00195551
0.000900414
0.00223395
0.00142163
0.000812315
0.00245608
0.00297096
-0.000634114
0.00204458
-0.00141047
0.00311356
-0.000142597
-0.000342849
0.000561902
-0.00112789
-9.44021e-05
-0.000248447
-0.00053439
-0.000119645
-0.000414745
-0.00101163
-0.000449727
0.0018059
0.000238681
-0.00172074
-0.000281424
-0.000720831
0.000959512
-0.000968176
-0.000159718
0.000644732
-0.000926156
-0.000323443
-0.00116194
0.000441112
-0.000319553
0.000529889
0.000536012
2.52589e-05
-0.000594656
0.000569397
-0.00113668
-0.000121267
0.000343173
-0.000221906
-0.000715922
-0.000688073
0.00122409
0.00126743
0.00207975
-0.000340776
-0.000795908
-0.00175124
0.0012123
0.00086745
0.0010697
-0.00068154
-0.000284363
0.000391816
-0.000551534
-0.000669842
0.000220115
-0.000278026
-0.000125457
-0.000158905
-0.000540203
-0.000320088
-0.00124608
0.000319922
-0.000286567
-0.000599795
0.000313229
-0.000158683
-0.00049872
-5.28136e-05
0.000822164
-0.000502241
-0.00066539
0.000506707
-9.59934e-05
0.000362277
-1.91042e-05
0.000266284
-0.000215454
0.000196349
1.68864e-05
0.000141924
-0.00015881
-0.000198567
-0.000420473
-0.000253982
-0.000166491
-0.000110682
0.000257694
0.000419207
-0.000144278
0.000563485
0.00107981
0.000310948
-0.000564931
-0.000404974
-0.00120088
0.000469658
0.00061015
-0.000655569
-0.000545314
0.00133711
-2.18956e-05
0.000108303
0.000235798
0.000113132
-0.000272037
-1.10153e-05
-0.00046134
0.000183314
-0.000514154
-0.000100484
-0.000171554
-0.000420572
-0.000237258
0.000475828
3.0879e-05
-0.000789056
0.000286815
-0.000525517
1.13632e-05
-0.000238702
-0.000295469
0.000326348
-0.00034089
4.54206e-05
-7.46062e-05
-0.000234465
0.000159859
-3.81154e-05
-0.000129541
9.14256e-05
1.23828e-05
5.27851e-06
2.40214e-05
-2.92999e-05
1.24452e-05
-2.34927e-05
4.75141e-05
6.85282e-05
-9.20209e-05
8.09111e-05
-4.57266e-05
-4.62944e-05
-0.000204537
-2.34678e-05
-5.83212e-06
-6.97621e-05
-1.76624e-05
-9.96091e-05
-0.000104928
-0.0002661
-0.000101316
-0.000164784
-0.000666246
-9.27504e-05
0.000328549
0.000470735
0.00108088
-0.000433545
-0.000232702
0.000978858
0.000102026
1.71956e-05
2.66315e-05
0.000125499
4.4227e-05
8.12719e-05
0.000372776
5.36624e-05
-0.000225216
1.32396e-05
-7.29318e-05
-0.000152284
-0.00031019
-0.000298826
-0.000232089
-6.6737e-05
-0.000470791
-0.000144443
0.000188609
-2.87506e-05
-0.00023403
8.95868e-05
5.24231e-05
2.84879e-05
0.000143849
0.000115098
4.02144e-05
7.29971e-06
6.87024e-05
1.73791e-05
-4.7583e-05
-2.21792e-05
-0.000152511
-2.20552e-05
4.39282e-06
-4.42344e-05
-3.25278e-06
1.40407e-05
8.10739e-07
4.06722e-05
-9.98198e-05
-5.26909e-05
-0.000264604
-0.000143826
-0.000120778
-0.000376528
0.000332805
3.99712e-05
0.00043483
5.83029e-05
7.41495e-06
3.32572e-05
8.86868e-05
0.000128658
9.53535e-05
-2.66511e-05
0.000210452
-0.000233301
8.1017e-05
-0.000300038
-1.83433e-05
-5.29279e-06
-7.38709e-06
8.19783e-06
-5.56369e-06
-3.85083e-05
-5.72603e-06
-9.11991e-05
-1.21072e-05
8.85444e-06
-1.78332e-05
5.4016e-06
9.7481e-06
-1.55026e-06
4.30054e-05
-7.12516e-05
-1.99476e-05
-0.00019203
-0.000133727
3.12389e-05
1.17664e-05
0.000159897
2.61703e-05
-7.12386e-06
5.57361e-06
4.54422e-06
-7.2185e-06
-1.01946e-06
-8.14331e-06
-6.97882e-07
-6.52061e-06
-3.11081e-06
-2.91545e-05
1.13212e-05
-4.9102e-05
-1.89464e-06
7.29624e-06
9.42659e-06
7.25558e-06
1.21706e-05
-6.59695e-06
2.3937e-05
3.09615e-05
-7.02448e-06
-5.71318e-05
8.0298e-06
-4.46375e-08
-8.09867e-06
-6.64156e-06
-2.20227e-06
-4.31833e-06
-1.03009e-05
-1.83742e-06
-6.15575e-06
1.82546e-06
7.60113e-06
9.85526e-06
-3.84497e-06
6.95113e-06
3.41061e-06
1.10117e-05
-1.15326e-06
-5.48831e-06
-8.17773e-06
-9.07709e-06
8.99368e-07
7.78167e-07
7.54885e-07
6.19625e-06
3.71918e-06
-6.95494e-06
-3.34598e-06
-1.24432e-05
-4.21072e-06
-7.55669e-06
5.18241e-07
5.67801e-06
1.153e-05
1.23081e-05
-1.11788e-05
-1.26448e-06
1.02794e-05
2.02876e-06
1.97582e-06
7.65383e-06
-6.45397e-06
-7.71845e-06
-7.94014e-06
5.91138e-06
)
;

boundaryField
{
    movingWall
    {
        type            calculated;
        value           uniform 0;
    }
    fixedWalls
    {
        type            calculated;
        value           uniform 0;
    }
    frontAndBack
    {
        type            empty;
        value           nonuniform List<scalar> 0();
    }
    defaultFaces
    {
        type            empty;
        value           nonuniform List<scalar> 0();
    }
}


// ************************************************************************* //
