/*--------------------------------*- C++ -*----------------------------------*\
  =========                 |
  \\      /  F ield         | OpenFOAM: The Open Source CFD Toolbox
   \\    /   O peration     | Website:  https://openfoam.org
    \\  /    A nd           | Version:  8
     \\/     M anipulation  |
\*---------------------------------------------------------------------------*/
FoamFile
{
    version     2.0;
    format      ascii;
    class       surfaceScalarField;
    location    "0.034";
    object      phi;
}
// * * * * * * * * * * * * * * * * * * * * * * * * * * * * * * * * * * * * * //

dimensions      [0 3 -1 0 0 0 0];

internalField   nonuniform List<scalar> 
662
(
-2.0222e-05
1.60645e-05
4.15889e-06
2.06685e-05
-4.08905e-05
-8.76448e-05
3.57763e-05
6.79329e-05
-1.72935e-05
2.14524e-05
-0.000151371
8.43948e-05
1.03715e-05
-5.12619e-05
9.32782e-05
-7.47955e-05
-2.24857e-05
4.39381e-05
-0.000180076
3.90763e-05
1.72147e-06
-5.29834e-05
2.18498e-06
-0.00012127
-4.66155e-06
0.000123746
-3.40885e-05
3.62735e-05
0.000163538
-9.27451e-05
5.57045e-05
-1.17664e-05
-0.000183054
4.6997e-06
-7.67674e-07
-5.22157e-05
1.14936e-06
-0.000116435
-5.98409e-06
-3.29392e-05
5.7432e-05
-1.7275e-06
0.000195103
-4.33321e-05
-0.000181062
-2.75958e-06
-2.2275e-06
-4.99882e-05
3.64359e-06
-0.000102866
-1.72123e-05
-2.92956e-05
5.71705e-05
2.61451e-07
0.000197824
-4.44839e-06
-1.51162e-06
0.000122758
-0.000122961
1.71546e-06
3.44438e-05
-3.59554e-05
-0.00017662
-6.67001e-06
-4.0869e-05
-9.11919e-06
-2.18131e-05
-1.9056e-05
-1.70752e-05
-4.73784e-06
4.81164e-06
-8.77169e-05
-1.9961e-05
-2.44839e-05
-0.000141393
-0.000756596
0.000897989
6.04387e-05
-3.26818e-06
8.96274e-05
-2.91887e-05
-5.17658e-05
0.000198527
-4.40855e-07
-4.25677e-07
0.000119988
3.19554e-06
3.40181e-05
-0.000152459
-3.32797e-05
-9.5814e-05
-7.57012e-05
-4.38015e-05
-6.90877e-05
2.20424e-05
-2.67802e-05
3.43733e-06
-7.64648e-05
-1.46894e-05
-2.10466e-05
-0.000390191
0.000705243
-0.00107165
-0.000953803
0.00185179
0.000215965
-2.07068e-05
0.000292858
-0.000106082
-0.000149099
-3.57383e-06
0.000106424
1.71371e-05
3.04442e-05
-0.000115826
9.40669e-05
2.7135e-05
-5.39152e-05
-2.73861e-07
-3.88227e-07
-7.58027e-05
-2.13204e-05
0.00135442
-0.00160298
-0.000107332
0.00195912
-4.14335e-06
9.24383e-05
1.81294e-05
2.63008e-05
-0.000196906
0.000108215
-6.56174e-05
1.17023e-05
0.00161503
-0.000367941
0.00199266
-3.35315e-05
-2.84342e-06
7.97418e-05
1.554e-05
2.34574e-05
-6.79352e-05
2.31777e-06
-0.000227582
4.23785e-05
0.00199076
1.89909e-06
0.00171024
-0.000128747
-5.43262e-06
2.96537e-05
5.55207e-05
1.80247e-05
-6.73568e-05
-5.78376e-07
-0.000231752
6.48809e-06
-2.32883e-08
-0.000111829
0.000108407
3.44504e-06
-3.14249e-05
3.14016e-05
0.00196084
2.99121e-05
0.00173049
-1.83444e-05
-0.00180562
0.000950119
0.000855504
-6.79173e-05
5.60453e-07
0.00191671
4.41381e-05
0.00187797
3.87361e-05
7.23471e-05
0.000156635
0.000793484
9.91385e-05
5.74963e-05
3.12212e-05
-0.000232454
1.23192e-07
-4.11453e-07
-0.000112568
1.15081e-06
-3.18363e-05
0.00171092
4.94786e-05
-0.000172501
-7.87426e-06
4.15746e-05
0.0001388
-0.00136342
0.000783407
0.00143552
-0.000243487
1.15942e-05
0.00167042
8.46428e-05
0.00158321
0.000125945
0.000292136
0.000415657
0.00116123
0.000320901
0.000152252
0.000108635
-8.51897e-08
-0.000111477
-1.00579e-06
-3.19215e-05
-0.00018
-1.51414e-06
9.01375e-06
-5.34203e-05
4.5546e-05
4.70778e-07
-0.000109394
-2.55439e-06
-3.14507e-05
-0.000164813
4.65187e-06
-1.98391e-05
-5.49345e-05
1.64984e-06
-9.92501e-05
-1.17933e-05
-2.98009e-05
-0.000142905
7.21153e-06
-2.91197e-05
-5.02827e-05
7.87312e-06
-4.25176e-05
-6.46056e-05
-2.19277e-05
-0.000127917
4.23459e-06
-1.92225e-05
-4.30712e-05
3.90874e-06
-2.01062e-05
-0.00011172
-3.88366e-05
-3.49279e-05
0.000498735
-0.00041434
-0.000138982
0.000206915
0.000359753
0.000132119
-0.000951678
0.000517355
0.000434323
-0.000535279
-0.000416399
-0.000663776
0.000369456
0.00029432
-0.000146421
-0.000745649
0.00021037
-0.000120966
-0.000624683
-0.000365762
0.000244796
0.000209461
-0.000623801
-0.000639694
0.000849155
-0.00105609
4.12458e-05
-0.000665929
-0.00101485
-0.000584724
-0.000100385
-0.000565543
-0.000370423
-0.000470809
-0.000413198
0.000545317
-0.00079571
0.00123003
-5.3445e-05
0.000115081
0.00111495
0.000484537
0.000452572
9.86508e-05
0.000385886
0.000420749
-0.000126429
0.0005194
-0.000468764
0.000342335
-0.000615186
-0.000404816
-0.00016002
3.62735e-05
0.000212455
-0.00079718
-0.000802392
-0.00136794
-0.00079248
-5.78251e-05
-0.00131011
-0.000476793
-0.000534618
-0.00024013
0.000692702
0.000874822
0.00126071
0.000649369
0.000240313
0.00102039
0.00040264
0.00011676
0.000642954
0.000183419
0.000158917
0.000300178
3.59554e-05
0.000120358
-0.000912838
-0.00118975
-0.000915598
2.95413e-05
-0.00121929
-0.00055183
-0.000522289
-0.000168846
0.000818216
0.000851549
0.000813767
0.00043947
0.000203484
0.00129102
0.000301894
0.000505378
1.36447e-05
-0.000929242
-0.00120565
-0.000935912
-0.00126688
6.12291e-05
-0.000826976
-0.000439902
-0.00054225
-0.000481021
0.000777217
3.65504e-05
0.000776776
0.00130372
-1.26981e-05
0.00134027
0.000508573
0.000495875
-0.000328281
-0.000607631
-0.00115526
-0.000941859
-0.000213397
-0.000640911
-0.000389332
-0.000552527
0.000394997
-0.000608395
-0.000696081
0.000256179
-0.000301084
-0.00049571
-0.000239531
0.00091437
-0.000137594
0.000893664
0.00141544
-7.51689e-05
0.00127784
0.000513012
0.000437843
0.000307089
-0.000457591
0.000150503
-0.000301306
-0.000690638
-0.000134732
-0.000322859
0.000350691
-0.000426392
-0.00029022
-0.000842747
6.07096e-05
-0.000903457
-0.000629929
-0.000127016
-0.000299375
-0.000196104
-0.000102037
-0.000390783
8.96996e-05
-0.000240281
-0.00023992
-0.00015022
-0.000159865
-8.04161e-05
-0.000294596
-0.000133599
-0.000160998
0.00143802
-0.00158712
0.00200524
-0.000567225
0.000933598
-0.000669382
0.000852765
4.08985e-05
0.000746683
-0.000840436
-0.000827916
0.000868814
0.00134443
-6.65918e-05
0.000516517
0.000455973
0.000389381
0.000552769
-0.0013932
0.00138827
-0.000835498
0.000492585
-0.000626183
-0.000169725
-0.000460204
9.99039e-05
-0.000399279
0.000803553
-0.00126376
-0.000501317
-0.000436056
-0.000190127
-0.000393102
-0.000529069
9.30126e-05
2.37015e-05
-0.00055277
-0.000247343
9.71232e-05
-0.000327759
0.000488757
-0.000395745
-2.13204e-05
-0.00224416
0.00167694
-0.000855895
0.00100755
-0.000738641
-0.000117254
0.000639613
0.00123976
-0.00037095
-0.00015344
0.000652889
-0.000136372
0.000281939
0.000404921
0.000268549
0.000520684
-2.0681e-05
-0.000500003
-8.95081e-05
-0.00074599
-0.000828149
-0.000307465
0.00030311
-0.000456551
-0.000442879
-0.000861399
-0.000402358
-0.00105153
-0.00102782
-0.00079546
-0.000753082
-8.48466e-05
-0.000942978
-0.000496621
-5.61496e-05
-0.000581467
-0.000255936
-0.000139809
-0.000312085
-3.14016e-05
-0.000733397
0.000616144
-0.000754078
0.00125576
0.00112701
-0.00029125
-0.000462829
0.000488469
-0.000779718
0.000488901
-0.000206962
3.23503e-05
0.00073393
-0.000245461
0.000233927
0.000298203
9.12414e-05
0.000341541
-0.000107614
3.40758e-05
0.000225294
-0.000192944
-0.000217585
-0.000183509
-0.000380395
0.000134934
-0.000121759
-0.000821219
-0.00087484
-0.000868352
-0.000440964
-0.000140503
-0.00126218
-0.00030864
-0.000449144
0.000183664
-0.000646492
0.00131067
0.00129233
-0.000441492
-0.000338227
-0.00108798
-0.00033882
-0.000677047
0.000164787
-7.35454e-05
-2.8157e-05
-0.000211667
0.00031928
-0.000184346
1.80247e-05
-4.5546e-05
-0.000923611
5.52582e-05
-0.000923487
-0.00122304
-3.91429e-05
-0.00116778
-0.000447993
-0.000487136
0.00127659
1.57362e-05
0.00132607
-0.00102507
-6.29162e-05
-0.00100933
-0.000668034
-0.00073095
0.00117133
0.000264189
0.00233256
-0.000910265
-1.32226e-05
-0.000898671
-0.00102137
-0.000146415
-0.00103459
-0.000488142
-0.000634556
0.00132048
5.58941e-06
0.00140512
-0.00114092
0.000131587
-0.00113533
-0.000750789
-0.000619202
0.00113567
-0.000843532
0.00139986
-0.000894843
-3.82754e-06
-0.000786208
0.00125934
0.000145783
0.00138529
0.000541754
-0.0018082
0.001022
-0.000676609
0.00207647
-0.00165595
0.00110063
-7.86324e-05
0.000861356
-0.000865184
-0.00124035
0.000205757
-0.000378991
-0.000637111
-0.000431354
0.000635369
-0.000489586
-0.00121282
7.74879e-05
-0.000577448
-0.000648321
-0.000570834
-0.000305343
0.000847097
0.00177112
0.00116126
-6.06353e-05
0.00029608
-0.000846141
0.000356556
9.55863e-07
0.000775717
0.000995406
0.000697085
0.000440761
0.000256324
0.000380125
-0.000643205
0.000264215
-0.000347125
-0.000443147
-0.000178932
-0.00077525
0.000197801
-0.000418694
-0.000590056
-0.000392255
-0.000595189
0.000596144
0.000400217
-0.000488568
0.000141443
-0.000108443
-0.000636304
0.00021761
-4.01598e-05
-0.000308928
0.000200486
-5.26039e-05
0.000347613
-0.00022145
-8.00073e-05
-0.000412361
-0.000194751
-0.000341398
0.000146648
-0.000166541
8.65334e-05
3.39447e-05
-0.000381558
-2.19277e-05
3.49279e-05
)
;

boundaryField
{
    movingWall
    {
        type            calculated;
        value           uniform 0;
    }
    fixedWalls
    {
        type            calculated;
        value           uniform 0;
    }
    frontAndBack
    {
        type            empty;
        value           nonuniform List<scalar> 0();
    }
    defaultFaces
    {
        type            empty;
        value           nonuniform List<scalar> 0();
    }
}


// ************************************************************************* //
