/*--------------------------------*- C++ -*----------------------------------*\
  =========                 |
  \\      /  F ield         | OpenFOAM: The Open Source CFD Toolbox
   \\    /   O peration     | Website:  https://openfoam.org
    \\  /    A nd           | Version:  8
     \\/     M anipulation  |
\*---------------------------------------------------------------------------*/
FoamFile
{
    version     2.0;
    format      ascii;
    class       volVectorField;
    location    "0.034";
    object      U;
}
// * * * * * * * * * * * * * * * * * * * * * * * * * * * * * * * * * * * * * //

dimensions      [0 1 -1 0 0 0 0];

internalField   nonuniform List<vector> 
424
(
(-0.00292851 -0.000186876 6.8018e-26)
(-0.0145804 0.00095903 0)
(-0.0130485 0.0027572 2.04799e-23)
(0.000176264 0.00314169 -1.15975e-24)
(-0.0470965 0.00512256 -2.47877e-23)
(-0.0229304 0.000842065 -3.38704e-23)
(-0.0029822 0.0137705 3.21331e-24)
(-0.000992535 0.0154269 -7.74058e-25)
(-0.0683589 0.00258465 -3.61208e-23)
(-0.0256428 0.00029646 3.10906e-23)
(-0.0699787 0.00226948 9.61851e-23)
(-0.0239303 0.000462812 0)
(-0.00517224 0.0500421 1.17752e-24)
(-0.000960412 0.0243604 0)
(-0.0740467 0.00056438 3.30166e-23)
(-0.0254614 -4.08829e-05 1.75074e-23)
(-0.0587607 0.000686105 0)
(-0.0195621 7.77843e-05 0)
(-0.000341176 0.0269807 0)
(-0.00266669 0.0728462 -2.7879e-23)
(-0.0730184 4.66394e-05 3.49468e-23)
(-0.0256931 -0.000338382 -1.87507e-23)
(-0.0570378 0.000236063 0)
(-0.0195497 5.5948e-05 0)
(1.31462e-05 0.0259211 1.30739e-23)
(-0.000176657 0.0777093 2.51584e-23)
(-0.00232062 0.0681326 -3.74059e-23)
(-0.00041541 0.0232139 -3.88376e-23)
(-0.0746754 -0.000329772 5.88531e-23)
(-0.0231205 -0.000845138 0)
(-0.0149587 -0.000966419 -1.31624e-22)
(-0.00303164 0.000212388 0)
(-0.0527925 -1.88152e-05 -1.05674e-22)
(-0.0179746 3.8299e-05 9.88163e-23)
(-0.0222791 0.0479275 6.83846e-23)
(0.00023957 0.0266681 0)
(0.000143244 0.029464 -2.27027e-22)
(0.00335262 0.0630734 2.33879e-22)
(8.2165e-05 0.0742713 2.79581e-23)
(-0.000418662 0.0598255 3.92268e-24)
(-7.06032e-06 0.0199129 -3.85034e-24)
(-0.0695998 -0.00255743 -1.05413e-22)
(-0.0487216 -0.00546492 1.33443e-22)
(-0.014046 -0.00308868 0)
(0.000219816 -0.00335547 -2.95555e-22)
(-0.0492376 -0.00026493 3.4702e-22)
(-0.016152 -3.3586e-05 0)
(-0.106062 0.152632 -1.89074e-22)
(0.809199 0.0278453 -5.0203e-23)
(-0.000694311 0.0777545 -1.62247e-23)
(-0.00574429 0.0862541 0)
(-0.00509224 0.166585 -3.61564e-24)
(-0.000243548 0.0576635 0)
(-4.43018e-05 0.0198306 0)
(-0.00398407 -0.0151339 5.94407e-23)
(-0.00125259 -0.016985 2.58464e-22)
(-0.052874 -0.000626147 0)
(-0.0174039 -0.000154232 0)
(0.40559 0.118715 1.41534e-22)
(0.861301 -0.0037888 -1.19283e-23)
(0.000144236 0.0542063 -9.27672e-23)
(-8.93486e-06 0.0186433 8.79332e-23)
(-0.00667871 -0.0541255 0)
(-0.00103823 -0.026673 0)
(0.551165 0.0128954 1.56581e-22)
(0.8826 -0.00214102 0)
(0.00040507 0.0513702 -7.97915e-23)
(9.83262e-05 0.0174037 7.34271e-23)
(-0.000334598 -0.0291548 6.02588e-23)
(-0.00297189 -0.0785822 -1.85935e-23)
(0.880582 -0.00128624 -1.38134e-23)
(0.625952 0.00205341 -1.1599e-22)
(-0.00229085 0.0556097 0)
(-0.000206267 0.0209029 0)
(7.72801e-05 -0.0287469 4.72714e-23)
(-0.000367316 -0.0830338 1.91028e-23)
(-0.00188763 -0.0655771 -3.97021e-22)
(-0.0003412 -0.0223353 0)
(0.87897 -0.000317212 1.30498e-23)
(0.636571 -0.000765193 -4.91951e-23)
(0.826664 -0.0267519 0)
(0.000337601 -0.0286795 -9.09867e-23)
(0.881639 0.0014075 0)
(0.886588 0.0020435 0)
(0.865762 0.00377254 0)
(-0.019519 -0.0491099 0)
(0.00355683 -0.0682175 -4.80645e-22)
(0.000171866 -0.0306944 5.95514e-22)
(0.000290744 -0.0817307 4.36528e-23)
(-0.000556567 -0.0574434 0)
(-3.6672e-05 -0.0191595 0)
(0.63875 -0.000726715 -2.08374e-23)
(-0.105042 0.00186376 -4.2029e-23)
(0.447505 -0.115185 9.6464e-22)
(-0.000514555 -0.0834953 -8.91174e-23)
(0.641211 0.00131541 -1.23707e-22)
(0.64276 -0.00138924 2.5734e-22)
(0.569764 -0.01082 -1.24179e-21)
(-0.108419 -0.153936 -1.80873e-22)
(-0.00646448 -0.179078 7.00893e-22)
(-0.0065465 -0.0900586 -5.6907e-22)
(5.48441e-05 -0.0570486 -3.09693e-23)
(3.50278e-05 -0.0196056 3.00338e-23)
(-0.0934852 5.54097e-05 0)
(-0.0406006 -4.51985e-05 -4.09363e-23)
(0.000386527 -0.0591358 -1.38392e-22)
(6.07085e-05 -0.0204002 -1.3158e-22)
(-0.0958799 -0.000318973 2.40077e-23)
(-0.0339484 5.62653e-06 0)
(-6.35293e-05 -0.057709 9.9535e-23)
(8.55336e-05 -0.0198643 -9.48881e-23)
(-0.0895904 -0.000141607 -2.48724e-22)
(-0.0352668 -0.000111458 -2.2732e-23)
(-0.0030058 -0.060289 0)
(-0.000222849 -0.023407 0)
(-0.0826382 0.000300746 1.35931e-22)
(-0.032758 -6.72193e-05 0)
(-0.0938091 -0.00161351 0)
(-0.0295207 -8.87635e-06 1.21591e-22)
(-0.0351698 -0.0001131 0)
(-0.0792573 0.0169967 2.51328e-24)
(-0.0235346 0.0117765 0)
(-0.0632986 0.0350183 0)
(-0.0120795 0.0247465 -1.83679e-24)
(-0.129196 0.106453 2.69412e-23)
(-0.156715 0.0736934 4.76423e-22)
(-0.0859274 0.135332 3.60671e-23)
(-0.106865 0.115934 -1.32047e-23)
(-0.15359 0.0621594 -8.01712e-22)
(-0.158337 0.037106 -2.63485e-23)
(-0.135746 0.0283826 -7.19503e-22)
(-0.122133 0.0286552 -1.92474e-22)
(-0.145502 0.0474424 -6.41721e-22)
(-0.165141 0.050869 8.37775e-22)
(-0.172019 0.0241898 -5.9947e-22)
(-0.179356 0.0266866 1.07997e-22)
(-0.111347 0.00665982 1.81229e-22)
(-0.16422 0.007355 1.24344e-21)
(-0.108849 0.00546348 2.62222e-22)
(-0.135368 0.00293723 3.39776e-22)
(-0.0365584 0.0641196 2.96714e-23)
(-0.103033 0.112524 0)
(-0.0713567 0.0676451 -2.45611e-23)
(-0.101236 0.0910056 0)
(-0.0731144 0.13812 5.31796e-23)
(-0.0746478 0.14727 -1.36948e-22)
(-0.0192075 0.0858601 -3.21895e-25)
(-0.0498314 0.164108 2.19455e-22)
(-0.0693748 0.133186 -4.79107e-23)
(-0.0469721 0.156639 2.86678e-22)
(-0.0612623 0.103335 -5.82953e-23)
(-0.0970184 0.0917846 -2.76773e-23)
(-0.108203 0.0658698 0)
(-0.0946065 0.0357914 1.22317e-22)
(-0.0231752 0.00243322 -2.98812e-22)
(-0.0651269 0.0140745 3.44741e-22)
(-0.159677 0.0086709 0)
(-0.178553 0.00900977 0)
(-0.186991 0.00220757 -8.62688e-22)
(-0.12406 0.000720786 -1.54582e-21)
(-0.180679 0.00213849 2.79912e-21)
(-0.101697 0.00153116 7.0833e-22)
(-0.143667 -0.000258128 7.3937e-22)
(-0.0346995 0.130764 -2.15623e-23)
(-0.0440462 0.152561 2.10035e-23)
(-0.0337367 0.176959 -2.34724e-22)
(-0.00636554 0.117694 7.75703e-22)
(-0.0203722 0.181694 1.15991e-22)
(-0.025892 0.149919 4.83031e-23)
(-0.0147077 0.167134 -3.00048e-22)
(-0.0333995 0.0886077 1.6802e-22)
(-0.0205166 0.13087 -1.17118e-21)
(-0.0143482 0.0639186 0)
(-0.00245552 0.0227827 0)
(-0.169504 -0.000959844 8.75057e-22)
(-0.186499 -0.000284943 -2.61067e-21)
(-0.126763 0.000706685 -9.19806e-22)
(-0.177863 0.000118524 2.9139e-21)
(-0.0995541 -4.59708e-05 -1.15673e-21)
(-0.144513 -0.000446919 1.43834e-21)
(-0.00531776 0.163823 -6.93721e-22)
(-0.00648252 0.182144 5.2314e-22)
(0.00120077 0.127862 0)
(-0.00487815 0.159134 0)
(-0.00168079 0.186598 -1.05481e-21)
(-0.00394837 0.102786 8.00822e-22)
(-0.000377078 0.13258 0)
(-0.169311 0.00215202 8.74241e-22)
(-0.18448 0.00135811 1.97349e-22)
(-0.13077 0.000709216 1.26076e-21)
(-0.17701 -0.00156545 -1.91407e-21)
(-0.182617 -0.00331351 -2.01389e-21)
(-0.0957992 -0.000686357 -2.26881e-21)
(-0.135658 -0.000605949 9.84767e-22)
(0.00377799 0.1678 7.67058e-22)
(0.000862841 0.122109 -8.12236e-22)
(-0.000331852 0.180775 2.55948e-21)
(0.00244369 0.186741 -1.97785e-21)
(-0.000653263 0.104511 0)
(0.000624266 0.145098 0)
(-0.161243 -0.00622822 -1.45043e-21)
(-0.180669 -0.00874732 0)
(-0.179237 -0.0272538 1.76522e-21)
(-0.113575 -0.00649143 1.05884e-21)
(-0.169204 -0.0353016 -1.96628e-21)
(-0.170133 -0.0326576 -3.24545e-21)
(-0.153837 -0.00736878 1.95869e-21)
(-0.160192 -0.0240591 1.79044e-21)
(-0.094946 -0.000732936 -2.94402e-22)
(-0.122005 0.000420859 0)
(-0.000550275 0.167799 -4.27604e-22)
(-0.00393066 0.131913 0)
(0.00111886 0.179444 0)
(-0.000372716 0.185097 3.27124e-22)
(-6.36321e-05 0.0985725 0)
(0.00166692 0.143538 0)
(-0.14772 -0.0649787 0)
(-0.160703 -0.0577081 -2.16155e-21)
(-0.16102 -0.0617809 2.91971e-21)
(-0.133654 -0.086669 0)
(-0.0781756 -0.016237 0)
(-0.12676 -0.0275753 -1.2216e-21)
(-0.14574 -0.0350097 -2.28577e-21)
(-0.133344 -0.0687074 2.80749e-21)
(-0.145239 -0.081533 -1.47914e-22)
(-0.0643544 -0.0337252 -7.03205e-22)
(-0.0247447 -0.0118883 0)
(-0.0137107 -0.0255958 2.14837e-21)
(-0.135734 -0.0332409 7.38073e-22)
(-0.139989 -0.0563541 -1.83411e-21)
(-0.0863759 -0.00147167 -1.3001e-21)
(-0.117564 -0.0265503 1.85783e-21)
(-0.116764 -0.0715449 8.61324e-22)
(-0.12036 -0.0877881 0)
(-0.103787 -0.101521 1.57272e-21)
(-0.0303309 0.23437 3.1907e-24)
(-0.128457 0.299095 -2.98944e-21)
(-0.14128 0.223683 3.13447e-21)
(0.118439 0.186677 -2.52102e-21)
(-0.0154832 0.170917 1.4405e-21)
(-0.017838 0.138479 -1.7442e-21)
(-0.0483518 0.207102 -8.93433e-22)
(-0.0168773 0.182781 -3.0759e-21)
(0.000768571 0.175715 -7.88234e-22)
(-0.00789358 0.180036 3.18373e-21)
(0.00109278 0.0936311 0)
(0.00222815 0.133569 2.89965e-22)
(-0.0629369 0.198802 4.23235e-21)
(-0.100279 0.191829 -1.31958e-21)
(-0.106919 -0.118472 4.1519e-21)
(-0.127931 -0.104212 2.47807e-21)
(-0.125219 -0.106086 -3.33212e-21)
(-0.0768418 -0.0617074 5.33741e-22)
(-0.0958934 -0.120022 0)
(-0.101601 -0.0861056 2.48025e-22)
(-0.0379923 -0.0625431 -3.00284e-21)
(-0.0842535 -0.140511 -5.8432e-21)
(-0.0225406 -0.0883205 0)
(-0.0694452 -0.141364 2.0512e-21)
(-0.0494294 -0.158958 0)
(-0.0785091 -0.027316 3.18155e-21)
(-0.0952698 -0.0617232 0)
(-0.059919 -0.105486 -4.67096e-21)
(-0.0857232 -0.0941312 1.13912e-21)
(-0.0172022 -0.00144397 1.35963e-21)
(-0.0504794 -0.00943884 -5.47358e-21)
(-0.105968 0.237987 -5.34607e-22)
(-0.128452 0.202005 0)
(0.00958229 0.194677 1.96925e-21)
(-0.13625 0.108612 -1.29751e-21)
(0.26426 0.0572401 9.58494e-22)
(-0.0274567 0.179118 2.01732e-21)
(-0.0488372 0.177384 -2.27196e-21)
(-0.00853421 0.149419 -1.66581e-21)
(-0.018799 0.152295 2.87643e-21)
(0.000846059 0.0908956 1.34378e-21)
(-0.00634037 0.117571 -8.89239e-22)
(-0.156093 0.0186205 0)
(-0.108773 0.125275 -1.91634e-21)
(-0.140305 0.0878076 1.08842e-22)
(-0.147209 0.048051 3.14608e-21)
(-0.0534126 0.137022 -1.22873e-21)
(-0.0855591 0.113075 1.19708e-21)
(-0.0630152 -0.14665 2.24961e-22)
(-0.0625422 -0.161578 5.05536e-22)
(-0.0469098 -0.171909 0)
(-0.0374861 -0.12707 -2.84035e-22)
(-0.00859661 -0.128852 1.90386e-23)
(-0.0278525 -0.17755 -3.58742e-21)
(-0.0305498 -0.153898 1.83819e-21)
(-0.0210872 -0.166542 -2.03119e-21)
(-0.0330338 -0.0921352 3.19166e-21)
(-0.0242917 -0.131344 -2.66016e-21)
(-0.0125393 -0.0606801 0)
(-0.00218957 -0.0212922 0)
(-0.0539571 0.057106 -4.54807e-22)
(-0.11496 0.0267463 1.6338e-21)
(0.10446 0.0605216 -6.68705e-22)
(0.374725 0.0176088 1.67473e-21)
(-0.12418 0.0161582 0)
(-0.173593 0.0105357 0)
(-0.0164834 0.118296 -2.08594e-21)
(-0.0334376 0.113596 0)
(-0.164444 -0.00443788 0)
(-0.161731 0.00187529 0)
(-0.00695663 0.0854533 0)
(-0.00627433 0.0965317 -9.49626e-22)
(-0.123779 0.00498175 0)
(-0.122197 0.0332912 -3.18379e-21)
(-0.0438821 0.0635633 0)
(-0.0826418 0.0676885 0)
(-0.0971611 0.0400766 2.69458e-21)
(-0.150861 -0.0107614 5.67824e-22)
(-0.0119082 -0.181223 2.51264e-21)
(-0.0113124 -0.166555 0)
(0.000249808 -0.134378 -4.019e-23)
(-0.00724218 -0.158348 0)
(-0.00349235 -0.184985 0)
(-0.00450837 -0.10156 -3.52001e-21)
(-0.00279904 -0.131394 3.21177e-21)
(-0.0452854 0.0166959 0)
(0.123798 0.0123147 -1.38906e-21)
(0.374927 0.00255613 0)
(-0.183662 0.00429064 -4.68653e-22)
(-0.154296 0.00878977 1.20083e-23)
(-0.143162 0.00535789 -2.5062e-22)
(-0.173347 0.00599362 1.30698e-22)
(-0.00440112 0.0310453 5.48716e-21)
(-0.0323721 0.0254456 -1.03239e-21)
(-0.0698122 0.0118971 -2.11877e-21)
(-0.0827933 -0.0143885 0)
(-0.0830861 -0.00391658 0)
(0.000288956 0.00903142 1.7213e-21)
(-7.51542e-05 0.022733 -6.50557e-21)
(-0.0637805 -0.00558725 0)
(0.00200952 -0.17394 -5.4422e-22)
(0.000380932 -0.134167 3.98444e-23)
(-0.00165029 -0.178516 -4.63124e-21)
(0.00123737 -0.186316 4.30756e-21)
(-0.0014606 -0.099254 0)
(0.00023165 -0.142313 -5.35856e-22)
(0.098025 -0.00266981 0)
(0.362572 -0.0015436 0)
(-0.167941 -0.00191185 4.26938e-22)
(-0.0939966 -0.00221623 -3.64526e-22)
(-0.148936 0.00022609 3.31651e-22)
(-0.18286 0.00674461 -5.56146e-22)
(-0.0245819 -0.000860015 0)
(0.131062 -0.186319 -5.76431e-21)
(-0.150229 -0.226795 9.82612e-21)
(-0.000602409 -0.171902 1.6723e-22)
(-0.00341889 -0.136659 0)
(0.000955623 -0.178103 3.94821e-21)
(-0.000648972 -0.185144 -2.87792e-21)
(0.000622718 -0.0965149 0)
(0.00240425 -0.147447 -1.02838e-21)
(0.0899131 -0.000142053 -3.84439e-23)
(0.357053 -0.00327063 -2.09511e-21)
(-0.19014 -0.00314383 -2.14008e-21)
(-0.103073 -0.000202479 -6.25331e-22)
(-0.152159 0.00167924 5.32449e-22)
(-0.190608 -0.00175669 0)
(0.267129 -0.0532112 -6.96112e-21)
(0.0259422 -0.166384 -6.40512e-21)
(-0.0150627 -0.172253 0)
(-0.0192795 -0.143035 0)
(0.130347 -0.00833676 -3.06305e-21)
(0.382457 -0.0156947 2.61038e-21)
(0.128129 -0.0592389 1.15822e-20)
(-0.0542706 -0.211919 0)
(-0.112698 -0.219361 9.19325e-21)
(-0.0351767 -0.250171 1.60201e-21)
(-0.147826 -0.305664 -2.59601e-21)
(-0.0668023 -0.194522 -1.75328e-23)
(-0.0154296 -0.182362 -3.83756e-21)
(0.000216669 -0.176911 1.64999e-21)
(-0.00637016 -0.179679 6.07264e-21)
(0.0011723 -0.106137 -3.6449e-21)
(0.000167603 -0.144412 2.36669e-21)
(-0.0490452 -0.0138115 2.45514e-21)
(-0.170479 0.00265088 3.73612e-21)
(-0.165935 -0.00567271 -3.37258e-21)
(-0.144364 7.13271e-05 2.48686e-22)
(-0.175021 -0.000241235 0)
(-0.062632 -0.06556 -3.8449e-21)
(-0.14835 -0.173062 -2.63061e-21)
(-0.0448714 -0.174768 -6.3881e-21)
(-0.0271881 -0.176047 7.55013e-22)
(-0.127459 -0.0149134 0)
(-0.115949 -0.0282982 -9.96932e-22)
(-0.130907 -0.172771 -6.74426e-21)
(-0.0893499 -0.17738 8.7064e-21)
(-0.0738787 -0.130185 6.39419e-21)
(-0.0513651 -0.139318 0)
(-0.00748426 -0.142778 0)
(-0.0176634 -0.147017 -2.51025e-21)
(-0.00139725 -0.0987579 0)
(-0.00756531 -0.121168 0)
(-0.187397 0.000152614 2.82079e-21)
(-0.178001 -0.0051801 -5.44157e-21)
(-0.137072 0.00215466 -2.61798e-22)
(-0.169082 -0.00295047 -1.59591e-21)
(-0.1561 -0.0193769 5.16576e-21)
(-0.148314 -0.073655 -4.46151e-21)
(-0.0185326 -0.116808 1.50513e-21)
(-0.03443 -0.115587 3.62277e-21)
(-0.174245 0.00460802 4.46001e-21)
(-0.156309 0.00227067 -1.78831e-22)
(-0.0432968 -0.0647158 -8.00855e-21)
(-0.0773502 -0.0779118 3.85541e-22)
(-0.110055 -0.0620641 1.41763e-21)
(-0.00737271 -0.0836113 0)
(-0.0081632 -0.0939974 -2.74673e-21)
(-0.137674 -0.00454499 -2.16205e-21)
(-0.158549 0.00818438 1.53701e-21)
(-0.0883653 0.0167912 1.4265e-21)
(-0.00673821 -0.0280759 0)
(-0.0342964 -0.0211152 3.56527e-21)
(-0.102882 0.0110579 1.60353e-22)
(-0.0936524 -0.00893715 0)
(0.000143603 -0.00952888 0)
(-0.00115847 -0.0228426 0)
(-0.0614588 0.00670569 -3.74631e-21)
(-0.0226605 0.00112772 2.94849e-21)
)
;

boundaryField
{
    movingWall
    {
        type            fixedValue;
        value           uniform (1 0 0);
    }
    fixedWalls
    {
        type            noSlip;
    }
    frontAndBack
    {
        type            empty;
    }
    defaultFaces
    {
        type            empty;
    }
}


// ************************************************************************* //
