/*--------------------------------*- C++ -*----------------------------------*\
  =========                 |
  \\      /  F ield         | OpenFOAM: The Open Source CFD Toolbox
   \\    /   O peration     | Website:  https://openfoam.org
    \\  /    A nd           | Version:  8
     \\/     M anipulation  |
\*---------------------------------------------------------------------------*/
FoamFile
{
    version     2.0;
    format      ascii;
    class       volVectorField;
    location    "0.034";
    object      U;
}
// * * * * * * * * * * * * * * * * * * * * * * * * * * * * * * * * * * * * * //

dimensions      [0 1 -1 0 0 0 0];

internalField   nonuniform List<vector> 
656
(
(0.743378 0.0565321 -9.65375e-25)
(0.927891 0.0140695 1.86654e-24)
(0.954785 -0.00127334 0)
(-0.0910747 0.119001 2.39961e-23)
(0.55675 0.097724 1.1209e-23)
(0.841229 0.000938764 0)
(-0.0571793 0.0672332 -4.94e-23)
(-0.0145959 0.0188478 9.84994e-24)
(0.968207 -0.000150937 0)
(-0.00050575 0.138595 -2.37901e-24)
(-0.00305285 0.193116 -7.83789e-23)
(-0.117738 0.17206 0)
(0.376013 0.13983 1.0052e-23)
(0.714988 0.00930045 0)
(0.890918 0.00127102 -1.70597e-22)
(0.9064 0.000577052 4.77734e-23)
(0.0010403 0.082342 9.71892e-24)
(0.00137444 0.0267219 0)
(0.971802 -7.72149e-05 -3.43226e-23)
(0.913379 0.000290855 -1.43683e-22)
(-0.0123896 0.0928335 7.71392e-23)
(-0.00523451 0.0628496 0)
(-0.0239246 0.125049 1.33424e-24)
(-0.00790353 0.242512 1.54052e-22)
(-0.136116 0.223438 -1.67724e-22)
(0.210344 0.180409 -2.26572e-23)
(0.577618 0.0245693 0)
(0.800566 0.0063625 2.66342e-22)
(0.829189 0.00301098 -8.91275e-23)
(-0.0014424 0.0356537 0)
(-0.000151519 0.0114419 0)
(0.916585 0.000151838 5.13512e-23)
(0.973286 -4.83622e-05 -3.66534e-23)
(0.842449 0.00159208 1.95768e-22)
(0.848704 0.000788988 -5.18135e-23)
(0.853191 5.47616e-05 -1.08944e-22)
(-0.00677662 0.0608591 -1.05438e-22)
(-0.00280589 0.0409073 1.70791e-23)
(-0.013786 0.0824562 -1.88428e-22)
(-0.0408528 0.158462 -1.57758e-22)
(-0.0167252 0.28276 1.66562e-22)
(-0.143746 0.269533 -4.79002e-24)
(0.068637 0.217889 4.55106e-22)
(0.433089 0.0473728 0)
(0.696345 0.0161954 0)
(0.738915 0.00797463 -3.69709e-22)
(-0.000821381 0.0230203 -5.40507e-24)
(-0.000128844 0.00732112 0)
(0.854111 -0.000875942 1.20253e-22)
(0.918984 2.61013e-05 -2.78288e-23)
(0.973881 -2.14269e-05 4.93044e-24)
(0.759 0.00429489 0)
(0.768681 0.00213415 0)
(0.775578 0.000129953 -1.06724e-22)
(0.777131 -0.0023572 4.60078e-22)
(0.762562 -0.00599215 0)
(-0.0103683 0.0365898 2.00265e-22)
(-0.0050189 0.0257367 2.95319e-22)
(-0.00202751 0.016519 -2.87697e-22)
(-0.025014 0.104715 -1.85366e-22)
(-0.0193298 0.048901 5.85116e-22)
(0.286668 0.0795869 -1.32798e-22)
(0.578161 0.0319091 1.75086e-22)
(0.63455 0.0164734 -5.2066e-22)
(-0.000553661 0.00885024 4.54049e-23)
(-6.73147e-05 0.00256316 6.09446e-23)
(0.844163 -0.00222041 -2.54898e-22)
(0.919538 -0.000143594 8.55173e-23)
(0.974539 1.26201e-05 5.48391e-24)
(0.726078 -0.0151369 -1.1626e-23)
(0.661635 0.00899675 0)
(0.674972 0.00456074 1.93364e-22)
(0.684654 0.000339786 2.04238e-22)
(0.687241 -0.00478679 -8.83041e-22)
(0.668231 -0.0124431 2.27487e-22)
(-0.00839433 0.0139393 8.89052e-22)
(-0.00405233 0.0091482 -6.79263e-24)
(-0.00182731 0.00551602 0)
(-0.000643677 0.00296197 1.05843e-22)
(0.447368 0.0556805 0)
(0.516101 0.0301733 6.65957e-22)
(-8.96087e-05 0.00127892 -1.00204e-22)
(5.52104e-05 0.00024309 -3.08841e-23)
(0.604377 -0.0240431 4.72114e-22)
(0.819818 -0.00590143 1.49777e-22)
(0.914102 -0.000368086 0)
(0.974886 4.27847e-05 -5.28783e-23)
(0.61899 -0.0301055 -2.89009e-22)
(0.467612 -0.0471375 7.2652e-22)
(0.251284 -0.190691 -8.79473e-22)
(0.549468 0.0168546 0)
(0.566245 0.00855684 4.6659e-23)
(0.579016 0.000905436 -1.45281e-22)
(0.583309 -0.00867208 5.12284e-22)
(0.560648 -0.0230022 -8.70407e-22)
(-0.0147982 0.00625888 3.74091e-22)
(-0.00926111 0.00306641 -3.99166e-22)
(-0.00538702 0.00139857 -1.97874e-22)
(-0.00280854 0.000480952 3.91669e-22)
(-0.00117338 4.4284e-05 4.71677e-23)
(-0.000205412 -6.18178e-05 -2.85204e-23)
(-0.136788 -0.250074 5.9012e-23)
(0.411823 -0.147936 -6.14068e-23)
(0.732524 -0.00899874 -7.96284e-22)
(0.900951 -0.00111834 0)
(0.97363 0.000110836 0)
(0.49841 -0.0537162 5.52502e-22)
(0.324694 -0.0808141 -2.77569e-22)
(0.105994 -0.229899 1.02625e-22)
(-0.141534 -0.297932 1.38451e-21)
(-0.0465298 0.0112201 0)
(-0.0339992 0.00582518 1.87059e-22)
(-0.0235862 0.0028525 -6.60674e-22)
(-0.0149901 0.00114407 1.84232e-22)
(-0.00793106 0.000288104 -4.38983e-23)
(-0.0021299 2.23716e-05 -2.72549e-23)
(-0.00763205 -0.288435 0)
(-0.120693 -0.194828 0)
(0.582846 -0.103393 4.88373e-22)
(0.850255 -0.000875254 -3.99791e-23)
(0.970539 0.000203559 -1.03117e-22)
(-0.0157348 -0.332122 -1.64677e-21)
(-0.0757844 0.00994222 0)
(-0.0567194 0.00549378 1.93407e-22)
(-0.0402815 0.00274872 -1.43847e-24)
(-0.0262168 0.00116665 9.56316e-23)
(-0.0142474 0.00035958 -4.49412e-23)
(-0.00411067 7.21278e-05 0)
(-0.027686 -0.163318 -5.51294e-22)
(-0.00300179 -0.232811 0)
(-0.0950063 -0.136156 5.08353e-22)
(0.757859 -0.0597739 0)
(0.95652 0.00135178 7.64746e-23)
(-0.0467941 -0.203831 0)
(-0.0976395 0.00819465 0)
(-0.0738536 0.00455983 1.20274e-22)
(-0.0529663 0.00232092 -3.4872e-22)
(-0.0348135 0.00101925 1.12839e-22)
(-0.0191735 0.000343415 5.04245e-23)
(-0.00576584 8.90907e-05 -1.69038e-23)
(-0.0156407 -0.117915 2.82653e-22)
(-0.0145708 -0.122669 0)
(-0.000264971 -0.16895 -4.4555e-22)
(-0.0605242 -0.0775915 4.30451e-22)
(0.931389 -0.014723 0)
(-0.0283991 -0.147137 0)
(-0.10635 0.0071237 1.53412e-22)
(-0.0805283 0.00402576 -1.48103e-22)
(-0.057841 0.00204858 1.43314e-22)
(-0.0380875 0.00089448 -2.74383e-22)
(-0.0210474 0.000301767 3.7734e-22)
(-0.00647266 7.84442e-05 -5.03113e-23)
(-0.0132602 -0.0669014 2.43862e-22)
(-0.00771403 -0.0882975 -5.22205e-22)
(-0.00597809 -0.083621 1.52092e-22)
(0.00180594 -0.10063 -4.62015e-22)
(-0.0141875 -0.0213992 1.31002e-23)
(-0.0239302 -0.0855942 0)
(-0.0152234 -0.0444844 -5.50114e-23)
(-0.107129 0.00766167 -1.88899e-22)
(-0.0810149 0.00484599 7.61485e-22)
(-0.0582678 0.00260355 -7.27068e-22)
(-0.038501 0.00112368 0)
(-0.0213651 0.00034731 0)
(-0.00666731 7.22826e-05 -5.51956e-24)
(-0.00836589 -0.0345326 1.17314e-22)
(-0.0066215 -0.0491037 3.41856e-24)
(-0.00302915 -0.0600162 3.98094e-22)
(-0.00126229 -0.0473247 -1.4956e-22)
(0.00233668 -0.0309886 0)
(-0.00854542 -0.019402 8.91496e-22)
(-0.062724 0.00400223 8.30533e-22)
(-0.0410932 0.00252495 -8.58827e-22)
(-0.0225903 0.000894426 0)
(-0.00695393 0.00015613 -7.7817e-24)
(-0.00470191 -0.0144757 -2.36398e-22)
(-0.00412508 -0.0250963 -9.17243e-23)
(-0.00271186 -0.0328394 1.89117e-22)
(-0.000643579 -0.0339606 -1.29381e-22)
(0.000181634 -0.014295 4.94387e-23)
(-0.0043578 -0.00540609 0)
(-0.00262792 0.00323887 -1.02307e-21)
(-0.0499767 0.00113678 0)
(-0.0174992 0.000385031 -2.72022e-23)
(-0.00149287 0.000503157 0)
(-0.00232004 -0.00372012 -2.40598e-22)
(-0.00229401 -0.0101371 -4.59488e-22)
(-0.00169549 -0.0166112 -6.2523e-23)
(-0.000719718 -0.0183768 1.2721e-22)
(7.59343e-05 -0.0105654 -4.96291e-23)
(-0.00104272 -0.000709504 2.08662e-21)
(-0.00126779 0.00159638 2.17691e-21)
(-0.00303648 0.00364601 7.013e-23)
(-0.000160834 0.0017259 -4.81373e-22)
(-0.000735968 0.000797017 -9.35328e-25)
(-0.00108981 -0.00236162 1.24608e-22)
(-0.000937443 -0.00648107 3.7217e-22)
(-0.000476669 -0.00921426 7.62656e-24)
(-6.53614e-05 -0.00576162 -2.28052e-23)
(-0.000147329 -0.00230939 -1.81532e-24)
(-0.000436173 -0.00124653 -1.74564e-21)
(-0.000530894 0.000723288 -5.26398e-22)
(-0.00132998 0.00156344 0)
(-0.00313642 0.00895294 1.5143e-21)
(0.000340801 0.001349 -2.58712e-22)
(-2.32481e-05 0.00155213 2.56496e-22)
(-0.000309893 0.000864606 1.28406e-22)
(-0.000429273 -0.00134761 0)
(-0.000266205 -0.00347922 -1.21983e-22)
(-6.37275e-05 -0.00289167 1.71373e-23)
(0.000207492 -0.00256583 8.27159e-22)
(1.0222e-05 -0.00220199 3.33614e-22)
(-0.000155423 -0.00133235 1.96571e-22)
(-0.000168103 0.000228055 5.35453e-23)
(-0.000326914 0.00054371 -6.13759e-23)
(-0.000450872 0.00206783 1.09024e-21)
(0.000279315 0.000483298 1.08121e-21)
(0.000221192 0.00114445 -4.04688e-22)
(1.73168e-05 0.00127293 -2.63966e-22)
(-0.000105835 0.000748554 -1.28481e-22)
(-0.000113137 -0.000633697 0)
(-3.88344e-05 -0.00105511 -1.12792e-23)
(0.000483472 -0.0018783 0)
(0.000170287 -0.00220069 -2.86186e-22)
(4.417e-05 -0.00184527 -9.86028e-22)
(-3.57509e-05 -0.00112267 3.21259e-22)
(-2.1159e-05 -6.25758e-06 -3.57833e-22)
(-1.19719e-05 1.42796e-05 9.64425e-24)
(0.000482254 0.000173013 -4.69715e-22)
(0.000156046 0.000363882 7.16077e-22)
(0.0001256 0.000890454 -6.92859e-22)
(2.09759e-05 0.000927675 1.32341e-22)
(-1.73293e-05 0.000505685 0)
(-1.08284e-05 -0.000158908 1.11524e-23)
(0.000358153 -0.000643516 0)
(0.000291795 -0.0015559 5.5024e-22)
(0.00010688 -0.00172498 7.16201e-22)
(3.59046e-05 -0.00135411 9.39246e-22)
(8.22111e-06 -0.000737488 -3.33551e-22)
(9.61619e-06 -4.71994e-05 -2.20248e-23)
(0.00107954 0.000248598 -5.6075e-22)
(0.000346099 9.45434e-05 0)
(7.65865e-05 0.000251302 5.14236e-22)
(5.89799e-05 0.00061954 0)
(1.48055e-05 0.000553607 0)
(5.8354e-06 0.000186353 0)
(0.000662517 -0.000213356 6.27014e-22)
(0.000194326 -0.000486779 -5.69127e-22)
(0.000156139 -0.00118578 -5.599e-22)
(5.45051e-05 -0.00120799 -4.17938e-22)
(2.28665e-05 -0.00080884 -4.34563e-22)
(1.28244e-05 -0.000261986 1.311e-23)
(0.00150735 0.000132225 0)
(0.000865914 0.000143312 1.40536e-22)
(0.000230353 4.68174e-05 0)
(2.97606e-05 0.000154949 2.00343e-27)
(2.02844e-05 0.000353248 0)
(8.25092e-06 0.000178194 -8.97875e-23)
(0.00164693 -1.95033e-05 0)
(0.0014213 -0.000229682 -5.65903e-22)
(0.00048443 -0.000120612 -1.57923e-22)
(9.22581e-05 -0.000336385 2.91793e-22)
(7.02887e-05 -0.000810422 -4.14873e-22)
(2.31897e-05 -0.000694368 -1.31425e-22)
(1.18306e-05 -0.000261158 9.15279e-23)
(0.00121601 7.4918e-05 -1.88735e-23)
(0.000647522 7.44701e-05 -2.10175e-22)
(0.000138782 1.83176e-05 0)
(5.93845e-06 7.74531e-05 -1.08189e-22)
(5.28005e-06 0.000103779 9.05765e-23)
(0.00132649 -1.38216e-05 2.09852e-24)
(0.00113846 -0.000136059 6.35529e-22)
(0.000328945 -6.05938e-05 -4.83668e-27)
(3.51957e-05 -0.000207833 1.32224e-25)
(2.30296e-05 -0.000454154 -2.65224e-22)
(9.10425e-06 -0.00021056 8.36092e-23)
(0.000917989 3.87718e-05 1.4855e-22)
(0.000438893 3.30074e-05 1.02531e-22)
(6.8812e-05 3.61953e-06 -1.2613e-22)
(-1.02201e-06 1.80284e-05 2.30009e-23)
(0.00100106 -8.47914e-06 2.09401e-24)
(0.000853156 -7.3168e-05 -1.4057e-22)
(0.000202525 -2.41183e-05 4.54036e-22)
(6.8638e-06 -0.000104343 -2.12713e-22)
(5.73428e-06 -0.000129093 3.37773e-26)
(0.000629875 1.7334e-05 0)
(0.000247293 1.09761e-05 1.13796e-22)
(1.6452e-05 -9.29875e-07 7.96589e-23)
(0.000687201 -4.76142e-06 0)
(0.000580336 -3.36191e-05 -2.0564e-22)
(0.00010277 -5.0306e-06 3.95807e-22)
(-1.25058e-06 -2.43744e-05 4.39554e-23)
(0.000361392 5.97712e-06 -9.70795e-25)
(7.5582e-05 2.65792e-06 -1.42994e-22)
(0.000394698 -2.44536e-06 9.69533e-25)
(0.000328495 -1.18824e-05 -1.14e-22)
(2.54005e-05 1.01604e-06 1.12905e-22)
(0.000117325 1.54278e-06 4.33745e-23)
(0.000128376 -1.14982e-06 0)
(0.000101161 -3.37654e-06 -1.09936e-23)
(-0.142824 0.303978 2.22427e-21)
(-0.0269923 0.258864 5.09695e-22)
(-0.041896 0.128153 0)
(-0.0753717 0.189282 2.78745e-21)
(-0.0629213 0.194047 -2.94564e-21)
(-0.0730793 0.268014 0)
(-0.0373889 0.310968 0)
(-0.0981024 0.353068 -1.02599e-21)
(-0.0850579 0.313993 0)
(-0.0389481 0.266441 -1.8852e-21)
(0.15196 0.126554 4.23706e-21)
(-0.0955843 0.27851 0)
(-0.0337717 0.0636187 -3.65929e-22)
(-0.0560081 0.105067 0)
(-0.016191 0.0192576 -3.8208e-21)
(-0.0385432 0.04692 3.90998e-21)
(-0.0830488 0.121426 -2.2718e-21)
(-0.114666 0.158986 0)
(-0.0953653 0.203124 0)
(-0.119107 0.239777 6.18581e-22)
(-0.108964 0.295146 0)
(-0.0977133 0.289241 1.95878e-21)
(-0.0156863 0.194125 2.36984e-21)
(0.0943188 0.155249 -5.71739e-21)
(0.302269 0.0909807 1.12316e-21)
(-0.149991 0.234652 -5.90232e-22)
(-0.140768 0.251876 0)
(-0.0215622 0.0120521 -3.16146e-21)
(-0.0491286 0.0285928 8.65994e-22)
(-0.0606745 0.0520483 7.20943e-22)
(-0.0911957 0.0816442 2.30992e-21)
(-0.121247 0.0803704 -4.44893e-21)
(-0.167104 0.114918 -3.93599e-21)
(-0.159183 0.15632 -3.0083e-21)
(-0.184362 0.184723 5.63492e-21)
(-0.131333 0.208034 -1.64199e-21)
(-0.0605717 0.1835 -1.714e-21)
(0.0423856 0.127898 0)
(0.386445 0.0501194 -5.74608e-21)
(0.189543 0.106044 0)
(0.422289 0.0294448 0)
(0.242252 0.0588531 4.83598e-21)
(-0.206694 0.171869 0)
(-0.179145 0.178867 0)
(-0.0112186 -0.277098 6.03969e-21)
(-0.146348 -0.329996 0)
(0.384941 -0.0831495 0)
(0.434269 0.0144999 -1.97085e-22)
(0.271289 0.033586 0)
(0.267218 -0.0938712 0)
(0.454197 -0.0373707 1.18425e-21)
(0.455726 0.00165406 3.69878e-21)
(0.293559 0.0082457 0)
(0.317043 -0.0439473 0)
(0.47116 -0.0151956 0)
(0.32186 -0.0149225 -3.75564e-21)
(-0.0638538 0.0224681 1.15059e-21)
(-0.0971802 0.0358651 -1.44705e-21)
(-0.120194 0.0483603 4.75888e-21)
(-0.172894 0.0543828 0)
(-0.201652 0.0844631 0)
(-0.230865 0.0945889 -3.10757e-21)
(-0.24896 0.118953 -2.36446e-21)
(-0.152981 0.138005 0)
(0.0659586 0.0796319 3.34798e-21)
(-0.0364519 0.117051 0)
(0.149531 0.0428374 0)
(0.00298179 0.067221 -3.62065e-21)
(-0.266407 0.104983 7.85316e-21)
(-0.228856 0.111825 -2.32035e-21)
(-0.0120734 -0.263656 -3.40843e-21)
(0.171274 -0.137336 7.67366e-21)
(0.145771 -0.156471 -6.00598e-21)
(-0.115292 -0.386245 1.70533e-21)
(-0.0780421 -0.328157 -3.71214e-21)
(-0.0365334 -0.359367 2.4382e-22)
(0.0461236 -0.182807 -6.36607e-21)
(0.0490388 -0.152901 2.08717e-21)
(0.147132 -0.109374 3.22971e-21)
(0.130725 0.00956558 0)
(0.0230934 0.0371999 0)
(0.0834346 -0.0935682 -3.55939e-21)
(0.186208 -0.0568689 0)
(0.0975816 -0.04601 -3.31885e-21)
(0.197033 -0.0211241 3.02654e-21)
(0.0581097 -0.010105 4.61296e-21)
(-0.0969882 0.0160401 1.6549e-21)
(-0.140542 0.0246479 0)
(-0.167504 0.0340096 0)
(-0.212481 0.0395895 3.28765e-21)
(-0.243889 0.0580553 0)
(-0.272758 0.0588749 8.27119e-21)
(-0.293101 0.0746282 -7.06764e-21)
(-0.110308 0.0530256 0)
(-0.133431 0.0677023 -5.67989e-21)
(-0.223126 0.0857801 1.157e-20)
(-0.196415 0.0388134 0)
(-0.291765 0.0735461 -7.47862e-21)
(-0.304651 0.0675846 -3.98976e-21)
(-0.0869462 -0.313707 0)
(-0.0721602 -0.247097 7.73047e-21)
(-0.072149 -0.242151 0)
(-0.0644778 -0.321569 -5.27721e-22)
(-0.0907863 -0.324285 4.14469e-22)
(-0.103867 -0.240696 -7.93936e-21)
(-0.0625143 -0.187257 -7.29496e-21)
(-0.0926685 -0.161318 9.70073e-21)
(-0.0399669 -0.115134 2.99312e-21)
(-0.106389 -0.0825541 -3.9206e-21)
(-0.053284 -0.0523892 0)
(-0.080165 -0.0182535 -3.1887e-21)
(-0.173954 0.0100354 0)
(-0.122871 0.013025 0)
(-0.166825 0.019533 -1.283e-21)
(-0.196936 0.0252632 -5.02641e-21)
(-0.230905 0.03143 4.31097e-21)
(-0.259418 0.0418795 -1.53384e-21)
(-0.277555 0.0438388 -1.9689e-21)
(-0.305348 0.0553862 6.23301e-21)
(-0.277319 0.0452902 -6.95329e-21)
(-0.300138 0.060119 8.47757e-21)
(-0.264137 0.0146698 0)
(-0.297732 0.0382746 -1.19104e-21)
(-0.318928 0.0600826 0)
(-0.311924 0.0549963 0)
(-0.0467502 -0.172477 -1.23737e-20)
(-0.0896709 -0.246896 4.2682e-21)
(-0.110255 -0.25656 5.15681e-21)
(-0.122636 -0.28641 -7.10781e-22)
(-0.139016 -0.257113 6.55739e-22)
(-0.173289 -0.207648 -7.4682e-21)
(-0.176377 -0.16862 0)
(-0.196894 -0.111577 -9.33689e-21)
(-0.279102 0.0169308 -4.39418e-21)
(-0.237762 -0.081114 6.79278e-21)
(-0.273575 -0.0186878 2.80287e-21)
(-0.134626 0.0113848 4.52474e-21)
(-0.291963 0.0516733 2.70032e-21)
(-0.172204 0.0175841 -3.23269e-21)
(-0.197429 0.0228454 -2.79842e-21)
(-0.224352 0.0306514 -6.06072e-21)
(-0.259262 0.0388528 1.3561e-21)
(-0.268392 0.0428946 -3.4356e-21)
(-0.291663 0.0445203 -2.70044e-21)
(-0.315602 0.0589725 6.73301e-22)
(-0.311005 0.0498562 1.23349e-21)
(-0.2718 0.0574389 4.81913e-21)
(-0.288281 0.0554006 1.99827e-21)
(-0.298965 0.0627452 -1.28022e-21)
(-0.291125 0.0595267 -1.92021e-21)
(-0.23928 0.0629244 -6.67788e-21)
(-0.0386516 -0.103512 0)
(-0.0623141 -0.163783 8.28048e-21)
(-0.180245 0.0646354 0)
(-0.218381 0.0541755 4.3779e-21)
(-0.11861 0.0602663 8.47405e-21)
(-0.144048 0.0569157 -5.59561e-21)
(-0.0857531 -0.178873 0)
(-0.12524 -0.218568 -4.90208e-21)
(-0.162385 -0.195907 1.5006e-20)
(-0.216495 0.0277444 -5.83709e-21)
(-0.242896 0.00820203 4.62121e-21)
(-0.178883 -0.154906 -1.07022e-20)
(-0.229452 -0.0758704 1.13827e-22)
(-0.220428 -0.0468266 -9.42767e-21)
(-0.13465 0.0115338 0)
(-0.263443 0.051553 0)
(-0.242726 0.0387021 2.59972e-22)
(-0.248126 0.0452914 -3.54827e-22)
(-0.167687 0.0197087 -5.03043e-21)
(-0.195465 0.0258138 5.34969e-21)
(-0.213567 0.0307677 4.64094e-21)
(-0.281686 0.0683607 1.83187e-21)
(-0.273716 0.0679293 -4.1707e-22)
(-0.244266 0.0755996 3.63454e-21)
(-0.225164 0.074687 1.32599e-21)
(-0.256314 0.0559367 -5.48034e-21)
(-0.261728 0.0702182 1.99852e-23)
(-0.268546 0.0623197 4.67942e-21)
(-0.198536 0.0803178 2.2994e-21)
(-0.173811 0.0787143 -7.50177e-21)
(-0.117798 0.0717082 2.88207e-21)
(-0.142745 0.0789605 2.38133e-21)
(-0.0940137 0.0695156 -3.36599e-21)
(-0.0564339 0.0514383 0)
(-0.0744898 0.0578275 2.79661e-21)
(-0.0900966 0.0536615 -2.39937e-22)
(-0.0817147 0.0461336 0)
(-0.024537 -0.0537976 -4.19848e-21)
(-0.0484886 -0.0933971 4.10773e-21)
(-0.0587642 -0.100772 2.88817e-21)
(-0.09427 -0.135938 0)
(-0.105523 0.0311222 1.02024e-20)
(-0.138594 0.0334657 0)
(-0.166134 0.0184003 5.66222e-21)
(-0.120057 -0.114304 1.30672e-22)
(-0.150133 -0.0262896 1.5337e-21)
(-0.150111 -0.122176 -4.2206e-21)
(-0.177814 -0.0551249 8.46794e-21)
(-0.0136281 -0.0248402 -4.96385e-22)
(-0.0250288 -0.0423449 0)
(-0.1248 0.010549 0)
(-0.0842903 0.00372964 -5.15509e-22)
(-0.101906 0.00488842 5.19663e-22)
(-0.221302 0.0432222 -3.01175e-21)
(-0.231752 0.0530668 2.64792e-21)
(-0.148527 0.0162508 0)
(-0.182961 0.0250897 -2.45986e-21)
(-0.198905 0.0344096 2.96226e-21)
(-0.196426 0.0846328 1.24127e-21)
(-0.23627 0.0750673 -2.01883e-21)
(-0.229741 0.0799474 -2.56138e-21)
(-0.216053 0.0589771 -3.41226e-21)
(-0.216286 0.0701524 6.76541e-22)
(-0.173831 0.0825966 0)
(-0.145861 0.0827157 0)
(-0.132458 0.0811608 0)
(-0.105322 0.0778407 -2.97395e-21)
(-0.0859705 0.0713715 -1.67432e-21)
(-0.0662433 0.0648871 3.98671e-21)
(-0.0495696 0.0532047 0)
(-0.00762875 0.0142947 0)
(-0.00488179 0.00946771 -6.6703e-22)
(-0.0139657 0.0255089 3.59332e-21)
(-0.0223895 0.0344051 -3.14996e-21)
(-0.0356446 0.0462533 0)
(-0.0252961 0.0323258 -5.85158e-21)
(-0.0385245 0.0395775 3.67769e-23)
(-0.0104853 0.0152326 0)
(-0.0143417 0.0198862 -4.59582e-21)
(-0.0047926 0.00587918 0)
(-0.0407158 0.0348665 1.31546e-23)
(-0.058412 0.0394087 2.00474e-23)
(-0.0575313 0.0299488 3.55424e-21)
(-0.0904609 0.0255099 -4.32488e-21)
(-0.035585 -0.0470701 8.81486e-21)
(-0.0593026 -0.0656509 -1.8553e-20)
(-0.0866648 -0.0657643 3.95222e-21)
(-0.0857725 0.00895937 -2.27961e-21)
(-0.0946846 -0.0370951 8.37815e-21)
(-0.114908 -0.0220265 -5.8863e-21)
(-0.00671657 -0.00722158 0)
(-0.0127345 -0.0154077 0)
(-0.0157639 -0.0166832 -3.64705e-21)
(-0.0315009 -0.0279074 -5.33471e-21)
(-0.00411569 0.00671003 5.64431e-22)
(-0.116484 0.010183 1.25698e-21)
(-0.0690222 0.00076115 0)
(-0.0865415 0.00272224 -1.09977e-21)
(-0.144946 0.0287548 1.49468e-21)
(-0.171468 0.0368124 -4.46534e-21)
(-0.186965 0.0540034 -8.01132e-23)
(-0.160158 0.0666329 4.05146e-21)
(-0.179119 0.0746579 -4.75428e-21)
(-0.16671 0.0799478 3.23427e-21)
(-0.0974857 0.0776547 -3.92814e-21)
(-0.126599 0.0767238 6.07471e-23)
(-0.124 0.0812726 1.11111e-21)
(-0.0364638 0.0521399 4.04062e-21)
(-0.0556386 0.0633096 -4.34046e-23)
(-0.077334 0.0704747 1.95774e-21)
(-0.0109477 0.0268414 1.76437e-21)
(-0.0268598 0.0440451 -2.13797e-21)
(-0.00619222 0.0174175 -1.58586e-21)
(-0.0161377 0.0183298 5.23062e-21)
(-0.0255422 0.0236708 0)
(-0.00487937 0.00509704 4.10944e-21)
(-0.00717064 0.00758609 -7.26293e-21)
(-0.00215737 0.000541547 0)
(-0.00219192 -1.83836e-06 0)
(-0.00441472 -0.00245648 -1.15548e-21)
(-0.0260562 0.0192435 5.23975e-21)
(-0.0402569 0.0215001 -1.53695e-23)
(-0.0401447 0.0141513 -1.07785e-20)
(-0.0616409 0.00756029 1.08815e-20)
(-0.0379445 -0.0176969 3.80842e-21)
(-0.0529525 -0.0174516 -3.09048e-21)
(-0.0466346 -0.00248228 -3.80747e-21)
(-0.00639643 -0.00335687 7.17224e-22)
(-0.0127484 -0.00728452 2.03382e-21)
(-0.0208623 -0.00670373 1.40876e-21)
(-0.0049784 0.0131872 -3.0472e-21)
(-0.0287776 0.04869 0)
(-0.0606706 0.0628428 0)
(-0.0918906 0.0354571 3.9477e-21)
(-0.107317 0.0544449 -2.76797e-21)
(-0.0995835 0.0660205 0)
(-0.0219704 0.00256342 3.06905e-23)
(-0.061794 0.0145892 0)
(-0.00985379 0.030405 -1.03492e-22)
(-0.000870328 0.00138804 -6.08595e-22)
(-0.000262574 0.0017492 2.99345e-21)
(-0.00900547 0.0070503 7.49525e-21)
(-0.0142853 0.0106439 0)
(-0.00151513 -0.000463812 -3.39679e-21)
(-0.00334355 0.000972842 -1.0783e-20)
(-0.000488212 -0.00199529 5.95306e-21)
(-0.00142185 0.00109397 4.21801e-22)
(-0.00527763 -0.00101752 0)
(-0.015432 0.00616309 0)
(-0.0250173 0.00791068 0)
(-0.0274494 0.000578164 0)
(-0.00732204 -0.000852337 4.81265e-21)
(-0.0158687 -0.00302241 -4.11228e-21)
(-0.0180674 0.000586957 0)
(-0.00129779 0.00975717 0)
(-0.000521235 0.00133681 2.72213e-21)
(0.000496845 0.00147074 -6.82804e-21)
(0.000536885 0.00169079 1.18853e-20)
(0.000489236 0.00150052 -7.183e-21)
(0.000768949 0.00108413 -2.33841e-21)
(0.000417305 0.00056904 0)
(-0.00306897 0.000264839 3.51743e-21)
(-0.00652628 0.00160887 0)
(0.000114997 -0.00256746 0)
(-0.000268918 -0.0020507 0)
(0.0001925 -0.00271498 -1.29431e-21)
(-0.000919567 0.000841881 2.23555e-21)
(-0.00314878 0.000587661 0)
(-0.0024983 0.000418232 6.76707e-21)
(-0.0045914 0.000917692 1.78973e-21)
(-0.00592451 0.00154636 -6.74925e-21)
(0.000962641 0.00123093 0)
(0.000540159 0.00108479 5.27839e-21)
(0.00108784 0.000935187 8.56089e-21)
(0.00127833 0.00107929 -9.7102e-21)
(0.000605144 0.000307554 -1.74296e-22)
(0.00108138 0.000577643 7.23181e-21)
(0.000634246 -0.00196601 1.45257e-21)
(4.05207e-05 -0.00103045 -1.08924e-21)
(0.000678348 -0.00207947 -8.36402e-21)
(0.000853505 -0.00240522 1.14288e-20)
(0.00105533 -0.00223442 0)
(0.00103441 0.000824566 -5.35728e-21)
(0.000279337 0.000801243 -7.84161e-21)
(0.00139499 5.53544e-05 1.16262e-20)
(0.00130828 -0.000819989 0)
(0.00097266 -0.00133609 0)
(0.000532683 -0.00074861 4.45916e-21)
(0.00170034 0.000739607 3.35683e-21)
(0.00177994 0.000710195 -5.95391e-21)
(0.00128235 0.000405868 -1.30435e-22)
(0.00167588 0.000530795 1.74992e-24)
(0.00142229 -0.00119594 0)
(0.00173716 -0.00142956 1.95007e-21)
(0.00193942 -0.000931139 -1.68466e-21)
(0.00222618 0.000255234 -4.06241e-24)
(0.00216991 -0.000463357 7.99669e-22)
(0.00213718 -8.48282e-05 6.32118e-21)
(0.000808516 -0.000352386 -5.91081e-21)
(0.00145498 -0.000677385 0)
(0.00179281 0.000226535 -8.82972e-21)
(0.00215832 0.000187234 4.20968e-21)
(0.00196793 -2.35024e-05 4.48268e-21)
(0.00171319 -0.000382617 0)
(0.00205983 -0.000391292 -4.91116e-21)
)
;

boundaryField
{
    movingWall
    {
        type            fixedValue;
        value           uniform (1 0 0);
    }
    fixedWalls
    {
        type            noSlip;
    }
    frontAndBack
    {
        type            empty;
    }
    defaultFaces
    {
        type            empty;
    }
}


// ************************************************************************* //
