/*--------------------------------*- C++ -*----------------------------------*\
  =========                 |
  \\      /  F ield         | OpenFOAM: The Open Source CFD Toolbox
   \\    /   O peration     | Website:  https://openfoam.org
    \\  /    A nd           | Version:  8
     \\/     M anipulation  |
\*---------------------------------------------------------------------------*/
FoamFile
{
    version     2.0;
    format      ascii;
    class       volVectorField;
    location    "0.057";
    object      U;
}
// * * * * * * * * * * * * * * * * * * * * * * * * * * * * * * * * * * * * * //

dimensions      [0 1 -1 0 0 0 0];

internalField   nonuniform List<vector> 
656
(
(0.743372 0.0565316 -9.65484e-25)
(0.927889 0.0140691 1.86666e-24)
(0.954788 -0.00127372 0)
(-0.0910749 0.118994 2.40003e-23)
(0.556743 0.0977245 1.12098e-23)
(0.841243 0.000939749 0)
(-0.0571798 0.0672279 -4.93904e-23)
(-0.0145962 0.0188461 9.85108e-24)
(0.968227 -0.000150827 0)
(-0.000504574 0.138602 -2.3783e-24)
(-0.0030495 0.193133 -7.83504e-23)
(-0.117738 0.172054 0)
(0.376007 0.139834 1.00525e-23)
(0.71502 0.00930674 0)
(0.890988 0.00127437 -1.70663e-22)
(0.906561 0.000582831 4.77885e-23)
(0.00104047 0.0823439 9.70511e-24)
(0.00137429 0.0267219 0)
(0.97185 -7.6365e-05 -3.43347e-23)
(0.91365 0.000298131 -1.43715e-22)
(-0.0123884 0.0928748 7.71113e-23)
(-0.00523405 0.0628733 0)
(-0.0239222 0.125116 1.33364e-24)
(-0.00789601 0.242545 1.53983e-22)
(-0.136115 0.223438 -1.67658e-22)
(0.210344 0.18042 -2.26586e-23)
(0.577675 0.0245871 0)
(0.800697 0.00637638 2.66443e-22)
(0.829484 0.00303118 -8.91601e-23)
(-0.00144233 0.0356652 0)
(-0.000151558 0.0114451 0)
(0.916967 0.000157945 5.13461e-23)
(0.97337 -4.7014e-05 -3.66597e-23)
(0.842939 0.00161596 1.95811e-22)
(0.849391 0.000809063 -5.18083e-23)
(0.853988 6.27071e-05 -1.0889e-22)
(-0.00677973 0.0608923 -1.05384e-22)
(-0.00280708 0.0409256 1.70713e-23)
(-0.0137925 0.0825118 -1.88329e-22)
(-0.0408482 0.158566 -1.57702e-22)
(-0.0167098 0.282822 1.66503e-22)
(-0.143742 0.269548 -4.77704e-24)
(0.06865 0.217917 4.5515e-22)
(0.433183 0.0474127 0)
(0.696554 0.0162308 0)
(0.739366 0.00802391 -3.69812e-22)
(-0.000821635 0.0230288 -5.40263e-24)
(-0.000128823 0.00732328 0)
(0.854898 -0.000883018 1.20148e-22)
(0.919429 2.82372e-05 -2.78109e-23)
(0.974002 -2.02774e-05 4.92916e-24)
(0.759738 0.00435177 0)
(0.769714 0.00218208 0)
(0.776779 0.000150059 -1.06668e-22)
(0.778321 -0.00237188 4.59719e-22)
(0.763568 -0.0060408 0)
(-0.0103747 0.0366064 2.00137e-22)
(-0.00502158 0.0257416 2.95153e-22)
(-0.00202826 0.0165186 -2.87522e-22)
(-0.0250268 0.104805 -1.85267e-22)
(-0.0193446 0.048939 5.84801e-22)
(0.28681 0.0796697 -1.32799e-22)
(0.578463 0.0319837 1.75133e-22)
(0.635179 0.0165748 -5.20758e-22)
(-0.000553571 0.00884829 4.53718e-23)
(-6.71033e-05 0.00256207 6.09068e-23)
(0.844822 -0.00224139 -2.54669e-22)
(0.919975 -0.0001463 8.54524e-23)
(0.974679 1.28747e-05 5.47849e-24)
(0.726728 -0.0151947 -1.16764e-23)
(0.662649 0.00911206 0)
(0.676388 0.00465766 1.93316e-22)
(0.686299 0.000382341 2.04134e-22)
(0.688879 -0.00481294 -8.82357e-22)
(0.669629 -0.0125384 2.27287e-22)
(-0.00839919 0.0139363 8.88449e-22)
(-0.00405388 0.00913937 -6.83332e-24)
(-0.00182783 0.00550611 0)
(-0.000643665 0.00295371 1.05774e-22)
(0.447776 0.055822 0)
(0.516923 0.0303583 6.66099e-22)
(-8.94622e-05 0.00127369 -1.00138e-22)
(5.53243e-05 0.00024149 -3.08638e-23)
(0.604762 -0.0240878 4.71825e-22)
(0.820234 -0.00592454 1.49697e-22)
(0.914463 -0.000374603 0)
(0.975023 4.20231e-05 -5.28371e-23)
(0.619917 -0.0302244 -2.88781e-22)
(0.468174 -0.0472325 7.26205e-22)
(0.251467 -0.190753 -8.79095e-22)
(0.55077 0.0170672 0)
(0.568062 0.00873607 4.66282e-23)
(0.581128 0.000984998 -1.45196e-22)
(0.585422 -0.00871523 5.119e-22)
(0.562473 -0.0231726 -8.69643e-22)
(-0.0147927 0.00626454 3.73789e-22)
(-0.00924861 0.00306698 -3.98867e-22)
(-0.0053734 0.00139808 -1.97741e-22)
(-0.00279726 0.000480391 3.91362e-22)
(-0.00116628 4.38676e-05 4.71315e-23)
(-0.000203309 -6.20562e-05 -2.84985e-23)
(-0.136732 -0.250231 5.90065e-23)
(0.411937 -0.147965 -6.13845e-23)
(0.732763 -0.00901538 -7.95862e-22)
(0.901172 -0.00112415 0)
(0.97374 0.00010964 0)
(0.499647 -0.0539364 5.5216e-22)
(0.325465 -0.0810031 -2.7734e-22)
(0.106265 -0.230028 1.02584e-22)
(-0.141417 -0.298182 1.38428e-21)
(-0.0465823 0.0112545 0)
(-0.0340231 0.00583939 1.86871e-22)
(-0.0235934 0.00285794 -6.60006e-22)
(-0.0149893 0.00114536 1.84049e-22)
(-0.00792803 0.000287664 -4.38546e-23)
(-0.00212831 2.18205e-05 -2.72279e-23)
(-0.00754942 -0.288994 0)
(-0.120667 -0.19492 0)
(0.58291 -0.103402 4.88173e-22)
(0.850379 -0.00087849 -3.99591e-23)
(0.970602 0.000203307 -1.03043e-22)
(-0.0155682 -0.332872 -1.64648e-21)
(-0.0759982 0.0100079 0)
(-0.0568608 0.00552629 1.93162e-22)
(-0.0403698 0.00276308 -1.41282e-24)
(-0.0262672 0.00117163 9.54952e-23)
(-0.0142714 0.000360374 -4.48765e-23)
(-0.00411652 7.18249e-05 0)
(-0.0276265 -0.164216 -5.51167e-22)
(-0.00296519 -0.233203 0)
(-0.0949975 -0.136203 5.08314e-22)
(0.757888 -0.0597745 0)
(0.956552 0.00135214 7.64142e-23)
(-0.0466863 -0.205018 0)
(-0.0980707 0.00828507 0)
(-0.0741574 0.0046066 1.20088e-22)
(-0.0531695 0.00234271 -3.48179e-22)
(-0.0349384 0.0010277 1.12656e-22)
(-0.0192381 0.000345333 5.03518e-23)
(-0.00578391 8.89979e-05 -1.68754e-23)
(-0.0156552 -0.118955 2.82623e-22)
(-0.0145396 -0.12331 0)
(-0.000249229 -0.169201 -4.45516e-22)
(-0.0605238 -0.0776109 4.30416e-22)
(0.931395 -0.0147218 0)
(-0.0284334 -0.148501 0)
(-0.106979 0.00723554 1.53168e-22)
(-0.0809824 0.00408429 -1.47874e-22)
(-0.0581522 0.00207638 1.43085e-22)
(-0.0382835 0.000905384 -2.73913e-22)
(-0.0211512 0.0003045 3.76689e-22)
(-0.00650311 7.86141e-05 -5.02232e-23)
(-0.0133524 -0.0677946 2.43772e-22)
(-0.00771844 -0.0890466 -5.22021e-22)
(-0.00596448 -0.0840387 1.52073e-22)
(0.00181215 -0.100762 -4.61978e-22)
(-0.0141889 -0.0214025 1.30993e-23)
(-0.0241055 -0.0867674 0)
(-0.0154478 -0.0451591 -5.49858e-23)
(-0.107926 0.00780024 -1.88599e-22)
(-0.081597 0.00492415 7.60193e-22)
(-0.058675 0.0026421 -7.25835e-22)
(-0.0387633 0.00113903 0)
(-0.021507 0.00035132 0)
(-0.00671033 7.27175e-05 -5.50952e-24)
(-0.00848695 -0.0350387 1.17256e-22)
(-0.00666549 -0.0497457 3.44272e-24)
(-0.00302989 -0.0605092 3.97958e-22)
(-0.00125832 -0.0475516 -1.49542e-22)
(0.00233738 -0.0310244 0)
(-0.0087261 -0.0196042 8.91171e-22)
(-0.0632495 0.00408597 8.29182e-22)
(-0.0414248 0.00256797 -8.57392e-22)
(-0.0227667 0.000907523 0)
(-0.00700572 0.000157812 -7.76713e-24)
(-0.00479984 -0.0146098 -2.36318e-22)
(-0.00418438 -0.025454 -9.16775e-23)
(-0.00272932 -0.0332617 1.89009e-22)
(-0.000643102 -0.0342322 -1.29327e-22)
(0.000182332 -0.0143607 4.94292e-23)
(-0.00446597 -0.00526379 0)
(-0.00270029 0.00319462 -1.024e-21)
(-0.0504982 0.00117707 0)
(-0.0176749 0.000393257 -2.71448e-23)
(-0.00151919 0.000792677 0)
(-0.00237694 -0.00358893 -2.40561e-22)
(-0.00234184 -0.0102205 -4.59286e-22)
(-0.00171986 -0.0168428 -6.2489e-23)
(-0.000724161 -0.01861 1.27157e-22)
(7.64805e-05 -0.0106477 -4.96195e-23)
(-0.00107683 -0.000897385 2.08801e-21)
(-0.0013033 0.0015443 2.17893e-21)
(-0.00310316 0.00368539 7.02023e-23)
(-0.000132524 0.00197602 -4.81419e-22)
(-0.000747813 0.0010382 -9.79974e-25)
(-0.00111622 -0.00225277 1.24588e-22)
(-0.000957005 -0.00652834 3.71995e-22)
(-0.000483586 -0.00934035 7.62172e-24)
(-6.56754e-05 -0.0058339 -2.27915e-23)
(-0.000146288 -0.00256426 -1.87989e-24)
(-0.000451649 -0.00140677 -1.74685e-21)
(-0.000546337 0.000676825 -5.26886e-22)
(-0.00135928 0.00157418 0)
(-0.00319037 0.00912799 1.51704e-21)
(0.000386782 0.0015005 -2.58745e-22)
(-4.35127e-06 0.00175402 2.56503e-22)
(-0.000313921 0.00105078 1.28436e-22)
(-0.000439354 -0.00126754 0)
(-0.000271738 -0.00350158 -1.21923e-22)
(-6.47175e-05 -0.00293054 1.71272e-23)
(0.000229397 -0.00281079 8.27412e-22)
(1.34085e-05 -0.00240892 3.3374e-22)
(-0.000161465 -0.00145819 1.96685e-22)
(-0.000173413 0.000192236 5.35994e-23)
(-0.000334377 0.00054367 -6.14552e-23)
(-0.00045926 0.00211547 1.09227e-21)
(0.000308453 0.000531646 1.08135e-21)
(0.00024697 0.00126172 -4.04755e-22)
(2.95363e-05 0.00142439 -2.63975e-22)
(-0.000106988 0.000878051 -1.28486e-22)
(-0.000115618 -0.000585233 0)
(-3.962e-05 -0.00106088 -1.12745e-23)
(0.00052579 -0.00204824 0)
(0.000184653 -0.00239375 -2.86294e-22)
(4.72802e-05 -0.00200148 -9.86466e-22)
(-3.74559e-05 -0.00121145 3.21474e-22)
(-2.20787e-05 -2.8809e-05 -3.58185e-22)
(-1.24518e-05 1.14599e-05 9.6552e-24)
(0.000528998 0.000190864 -4.69791e-22)
(0.000170585 0.000396759 7.16195e-22)
(0.000138764 0.000975035 -6.92972e-22)
(2.74706e-05 0.00103034 1.32346e-22)
(-1.72458e-05 0.000580522 0)
(-1.09822e-05 -0.000142396 1.11477e-23)
(0.000387157 -0.000695334 0)
(0.000315513 -0.00168799 5.50354e-22)
(0.000114781 -0.00186725 7.16421e-22)
(3.78131e-05 -0.00146071 9.39645e-22)
(8.27331e-06 -0.000789341 -3.33783e-22)
(9.77771e-06 -5.51199e-05 -2.2046e-23)
(0.00119782 0.000275556 -5.60807e-22)
(0.000376359 0.000103804 0)
(8.32668e-05 0.000271925 5.14321e-22)
(6.45398e-05 0.000674884 0)
(1.67684e-05 0.000611282 0)
(6.21025e-06 0.000210403 0)
(0.000715241 -0.000233519 6.27173e-22)
(0.000208973 -0.000522104 -5.6926e-22)
(0.000168188 -0.00128162 -5.60016e-22)
(5.81424e-05 -0.00130306 -4.18066e-22)
(2.38228e-05 -0.000869175 -4.34744e-22)
(1.31723e-05 -0.000278702 1.31214e-23)
(0.0016752 0.000144842 0)
(0.000955361 0.000158204 1.40553e-22)
(0.000248496 5.12498e-05 0)
(3.21767e-05 0.000166497 1.98788e-27)
(2.1867e-05 0.000383135 0)
(8.64729e-06 0.000195669 -8.98024e-23)
(0.00182293 -2.62734e-05 0)
(0.00155552 -0.000256524 -5.66047e-22)
(0.000519787 -0.000131212 -1.57985e-22)
(9.89971e-05 -0.000358544 2.91844e-22)
(7.53741e-05 -0.000873405 -4.14956e-22)
(2.44787e-05 -0.000747006 -1.3146e-22)
(1.227e-05 -0.000279706 9.15654e-23)
(0.00134503 8.19026e-05 -1.88761e-23)
(0.000711254 8.19796e-05 -2.10199e-22)
(0.000148563 1.99231e-05 0)
(6.29218e-06 8.26536e-05 -1.08209e-22)
(5.49736e-06 0.000112048 9.05916e-23)
(0.00146187 -1.77896e-05 2.09888e-24)
(0.00124054 -0.000150908 6.35693e-22)
(0.000350992 -6.56942e-05 -4.72016e-27)
(3.76196e-05 -0.000220247 1.34624e-25)
(2.45255e-05 -0.000488316 -2.6527e-22)
(9.47423e-06 -0.000225942 8.36316e-23)
(0.00101157 4.23259e-05 1.48568e-22)
(0.000480369 3.61679e-05 1.02541e-22)
(7.30893e-05 3.84082e-06 -1.26142e-22)
(-1.20943e-06 1.90666e-05 2.3005e-23)
(0.00109937 -1.05908e-05 2.09437e-24)
(0.000926363 -8.07784e-05 -1.40604e-22)
(0.000214951 -2.60089e-05 4.54158e-22)
(7.20043e-06 -0.000109942 -2.12765e-22)
(5.99291e-06 -0.000138476 3.39757e-26)
(0.000691967 1.88734e-05 0)
(0.00026985 1.1919e-05 1.13806e-22)
(1.72975e-05 -1.09355e-06 7.96661e-23)
(0.000752529 -5.72677e-06 0)
(0.000628281 -3.68819e-05 -2.05696e-22)
(0.0001085 -5.32165e-06 3.95901e-22)
(-1.45252e-06 -2.54887e-05 4.39583e-23)
(0.000395998 6.47342e-06 -9.7096e-25)
(8.22258e-05 2.81734e-06 -1.43008e-22)
(0.000431175 -2.77525e-06 9.69698e-25)
(0.000354744 -1.28974e-05 -1.14031e-22)
(2.66392e-05 1.17733e-06 1.12931e-22)
(0.000128234 1.64754e-06 4.33793e-23)
(0.000139903 -1.22768e-06 0)
(0.000108963 -3.57423e-06 -1.09964e-23)
(-0.142805 0.304016 2.22384e-21)
(-0.0269619 0.258915 5.09916e-22)
(-0.0419221 0.128297 0)
(-0.075395 0.189537 2.78628e-21)
(-0.0629117 0.19421 -2.9444e-21)
(-0.0730223 0.26824 0)
(-0.0373497 0.311079 0)
(-0.0980451 0.353175 -1.02569e-21)
(-0.0849312 0.31417 0)
(-0.0388409 0.266565 -1.8853e-21)
(0.152157 0.126697 4.23768e-21)
(-0.0955081 0.278832 0)
(-0.03381 0.063697 -3.65707e-22)
(-0.0560698 0.105249 0)
(-0.0162076 0.0192669 -3.81821e-21)
(-0.0385987 0.046984 3.90734e-21)
(-0.083164 0.121711 -2.27034e-21)
(-0.114793 0.159406 0)
(-0.0954004 0.203478 0)
(-0.1191 0.24023 6.1837e-22)
(-0.108783 0.295507 0)
(-0.0974996 0.28953 1.95868e-21)
(-0.0152828 0.194469 2.36967e-21)
(0.0946707 0.155493 -5.71828e-21)
(0.302795 0.0912167 1.12338e-21)
(-0.149954 0.235252 -5.90032e-22)
(-0.140548 0.252452 0)
(-0.0215713 0.0120705 -3.15885e-21)
(-0.0491887 0.0286519 8.65352e-22)
(-0.0607808 0.0521556 7.20371e-22)
(-0.0913794 0.0818691 2.30843e-21)
(-0.121533 0.0806652 -4.44516e-21)
(-0.167496 0.115451 -3.93338e-21)
(-0.159409 0.156929 -3.00652e-21)
(-0.184487 0.18547 5.63139e-21)
(-0.130945 0.208721 -1.64175e-21)
(-0.0600176 0.184062 -1.71405e-21)
(0.0432804 0.128453 0)
(0.387452 0.0504008 -5.74675e-21)
(0.190343 0.10642 0)
(0.423857 0.0297922 0)
(0.243644 0.0592982 4.83675e-21)
(-0.206805 0.172841 0)
(-0.178857 0.17983 0)
(-0.0108694 -0.27735 6.03718e-21)
(-0.146128 -0.330348 0)
(0.386452 -0.0834925 0)
(0.436493 0.0148117 -1.97024e-22)
(0.273494 0.0341392 0)
(0.269391 -0.094412 0)
(0.456401 -0.0376316 1.18324e-21)
(0.458292 0.0017794 3.6964e-21)
(0.29643 0.0085299 0)
(0.319858 -0.0442351 0)
(0.473711 -0.015263 0)
(0.324926 -0.0149255 -3.75322e-21)
(-0.0639569 0.0225498 1.14957e-21)
(-0.0974159 0.0360184 -1.44538e-21)
(-0.120515 0.0485857 4.75485e-21)
(-0.173492 0.0547899 0)
(-0.202285 0.0850888 0)
(-0.231665 0.0954342 -3.10492e-21)
(-0.249575 0.120034 -2.36313e-21)
(-0.152342 0.139147 0)
(0.0674214 0.0803774 3.34718e-21)
(-0.0353273 0.117988 0)
(0.15184 0.0435213 0)
(0.0047195 0.06815 -3.61974e-21)
(-0.26701 0.106319 7.84751e-21)
(-0.228682 0.113236 -2.31892e-21)
(-0.0112604 -0.264203 -3.4072e-21)
(0.172291 -0.137708 7.67061e-21)
(0.14713 -0.156954 -6.00226e-21)
(-0.114855 -0.386963 1.70475e-21)
(-0.0771963 -0.328987 -3.71054e-21)
(-0.0361963 -0.360326 2.43753e-22)
(0.0476319 -0.183703 -6.36439e-21)
(0.0510126 -0.15388 2.08619e-21)
(0.149583 -0.110113 3.22726e-21)
(0.133839 0.0100218 0)
(0.0257526 0.038067 0)
(0.0863422 -0.0942974 -3.55669e-21)
(0.189311 -0.0572514 0)
(0.100905 -0.0462927 -3.31629e-21)
(0.200353 -0.0211103 3.02421e-21)
(0.0613573 -0.00980539 4.60947e-21)
(-0.0972944 0.0161556 1.653e-21)
(-0.141093 0.0248534 0)
(-0.16819 0.0343131 0)
(-0.213543 0.040082 3.28361e-21)
(-0.245074 0.0587982 0)
(-0.274234 0.0598354 8.26282e-21)
(-0.294437 0.0759024 -7.06154e-21)
(-0.108359 0.0541905 0)
(-0.13209 0.068941 -5.67669e-21)
(-0.222739 0.0873152 1.15632e-20)
(-0.195194 0.0399725 0)
(-0.292474 0.0751909 -7.47378e-21)
(-0.306108 0.0690487 -3.98639e-21)
(-0.0857709 -0.314972 0)
(-0.0706347 -0.248495 7.72753e-21)
(-0.0719429 -0.243657 0)
(-0.0639664 -0.322962 -5.27587e-22)
(-0.0900102 -0.325933 4.14363e-22)
(-0.102265 -0.242326 -7.93633e-21)
(-0.0604678 -0.188441 -7.29087e-21)
(-0.0904963 -0.162574 9.69516e-21)
(-0.037335 -0.11611 2.98983e-21)
(-0.103801 -0.0834287 -3.9173e-21)
(-0.0502135 -0.0527778 0)
(-0.0773818 -0.0179106 -3.18628e-21)
(-0.172231 0.0108311 0)
(-0.123451 0.0131763 0)
(-0.167744 0.0197978 -1.28111e-21)
(-0.19805 0.0256306 -5.02011e-21)
(-0.232452 0.0319856 4.30519e-21)
(-0.261168 0.0426519 -1.53219e-21)
(-0.27961 0.0448026 -1.96672e-21)
(-0.307414 0.0567077 6.22773e-21)
(-0.277589 0.0467752 -6.94674e-21)
(-0.301015 0.0618357 8.46982e-21)
(-0.264041 0.0154584 0)
(-0.298709 0.0396559 -1.19027e-21)
(-0.321063 0.0617673 0)
(-0.314246 0.0564665 0)
(-0.0467894 -0.17418 -1.23695e-20)
(-0.0894527 -0.248869 4.26684e-21)
(-0.109908 -0.258849 5.15504e-21)
(-0.121809 -0.288515 -7.10471e-22)
(-0.137809 -0.259184 6.5545e-22)
(-0.172306 -0.209897 -7.46639e-21)
(-0.175061 -0.170484 0)
(-0.195703 -0.112895 -9.32973e-21)
(-0.281174 0.0178196 -4.39179e-21)
(-0.237553 -0.0819269 6.78759e-21)
(-0.273979 -0.0184409 2.80135e-21)
(-0.135459 0.011577 4.51789e-21)
(-0.294536 0.0529611 2.69748e-21)
(-0.173429 0.0179044 -3.22774e-21)
(-0.198869 0.0232567 -2.79454e-21)
(-0.226203 0.0312502 -6.05241e-21)
(-0.261401 0.0396852 1.35432e-21)
(-0.270775 0.043878 -3.43201e-21)
(-0.294149 0.0459175 -2.69926e-21)
(-0.31811 0.0606525 6.72805e-22)
(-0.313122 0.0514382 1.23269e-21)
(-0.274681 0.0590457 4.81702e-21)
(-0.291007 0.0567511 1.99661e-21)
(-0.301805 0.0644071 -1.27926e-21)
(-0.293967 0.0610422 -1.91864e-21)
(-0.242245 0.0644778 -6.67714e-21)
(-0.0389417 -0.104979 0)
(-0.0624947 -0.165849 8.27753e-21)
(-0.182914 0.0660199 0)
(-0.221286 0.0554657 4.37742e-21)
(-0.12065 0.0614449 8.4771e-21)
(-0.146431 0.058079 -5.59764e-21)
(-0.0860339 -0.181287 0)
(-0.125162 -0.221147 -4.90042e-21)
(-0.162298 -0.1985 1.50021e-20)
(-0.219273 0.0285468 -5.83718e-21)
(-0.245391 0.00869772 4.62042e-21)
(-0.179547 -0.15717 -1.06992e-20)
(-0.23045 -0.0768889 1.1379e-22)
(-0.222292 -0.0474948 -9.42591e-21)
(-0.135688 0.0117572 0)
(-0.266101 0.0527197 0)
(-0.245048 0.0395411 2.59686e-22)
(-0.25062 0.0462778 -3.54436e-22)
(-0.169134 0.0200763 -5.02291e-21)
(-0.197189 0.0263013 5.34185e-21)
(-0.215593 0.0314005 4.63438e-21)
(-0.284675 0.0700513 1.83087e-21)
(-0.276708 0.0696296 -4.16915e-22)
(-0.24722 0.0773098 3.63323e-21)
(-0.228065 0.0763604 1.32584e-21)
(-0.259074 0.0572005 -5.47597e-21)
(-0.26467 0.0717913 1.99958e-23)
(-0.27144 0.063769 4.67567e-21)
(-0.201254 0.0819942 2.29947e-21)
(-0.176352 0.0803116 -7.50231e-21)
(-0.119735 0.0730906 2.88285e-21)
(-0.144928 0.0805093 2.3815e-21)
(-0.0956071 0.070816 -3.36793e-21)
(-0.0574951 0.052366 0)
(-0.075852 0.0588929 2.79823e-21)
(-0.0917637 0.0546693 -2.40028e-22)
(-0.083323 0.0469663 0)
(-0.0249097 -0.054651 -4.19637e-21)
(-0.0490443 -0.0949039 4.10566e-21)
(-0.0594664 -0.102467 2.88715e-21)
(-0.0950801 -0.138146 0)
(-0.107577 0.0317006 1.02039e-20)
(-0.140995 0.0341683 0)
(-0.168747 0.0188467 5.66234e-21)
(-0.121244 -0.116363 1.30635e-22)
(-0.152506 -0.026799 1.53358e-21)
(-0.151372 -0.124199 -4.21944e-21)
(-0.17987 -0.0560826 8.46581e-21)
(-0.0139323 -0.0251322 -4.96212e-22)
(-0.0255402 -0.0430239 0)
(-0.125943 0.0107674 0)
(-0.0850193 0.00383303 -5.14606e-22)
(-0.102808 0.00501902 5.18752e-22)
(-0.223674 0.0441169 -3.00838e-21)
(-0.234338 0.0541869 2.64543e-21)
(-0.149996 0.0165823 0)
(-0.184806 0.0256002 -2.45637e-21)
(-0.201025 0.0351085 2.95893e-21)
(-0.199051 0.0863142 1.24117e-21)
(-0.239118 0.0766319 -2.01776e-21)
(-0.232599 0.0816233 -2.56047e-21)
(-0.218585 0.0601411 -3.40918e-21)
(-0.218919 0.0715488 6.76029e-22)
(-0.1762 0.0841899 0)
(-0.147958 0.0842756 0)
(-0.134461 0.0827004 0)
(-0.106975 0.0792757 -2.97549e-21)
(-0.0873963 0.072687 -1.67573e-21)
(-0.0673655 0.066068 3.98941e-21)
(-0.0504659 0.0541643 0)
(-0.00779659 0.0145064 0)
(-0.00499275 0.00959584 -6.67828e-22)
(-0.0142457 0.025943 3.59722e-21)
(-0.0228311 0.0349996 -3.15338e-21)
(-0.0363009 0.0470774 0)
(-0.0258314 0.032857 -5.85652e-21)
(-0.0393205 0.040252 3.75039e-23)
(-0.0107344 0.01541 0)
(-0.0146738 0.0201461 -4.59961e-21)
(-0.00492259 0.00586253 0)
(-0.0416088 0.0354188 1.35277e-23)
(-0.0596635 0.0400621 2.0546e-23)
(-0.0588385 0.0303905 3.55581e-21)
(-0.0923573 0.0259128 -4.32541e-21)
(-0.0363328 -0.0478753 8.81298e-21)
(-0.060391 -0.0668861 -1.85483e-20)
(-0.0881168 -0.0671174 3.95115e-21)
(-0.0876518 0.00900351 -2.28001e-21)
(-0.0964878 -0.0379077 8.37689e-21)
(-0.117047 -0.022578 -5.88534e-21)
(-0.00688669 -0.00708304 0)
(-0.0130578 -0.0154422 0)
(-0.0161673 -0.0167445 -3.64657e-21)
(-0.0322697 -0.0282872 -5.33376e-21)
(-0.0042084 0.00679436 5.65112e-22)
(-0.117732 0.0103979 1.25378e-21)
(-0.069739 0.00081975 0)
(-0.087448 0.00281698 -1.09696e-21)
(-0.146603 0.0292625 1.4907e-21)
(-0.17344 0.037489 -4.45827e-21)
(-0.189199 0.0549819 -8.10125e-23)
(-0.162192 0.0677723 4.04907e-21)
(-0.181426 0.0760304 -4.75273e-21)
(-0.168927 0.0814047 3.23338e-21)
(-0.0989799 0.079043 -3.93058e-21)
(-0.128371 0.078063 6.0747e-23)
(-0.125803 0.0827349 1.11155e-21)
(-0.0370903 0.0530713 4.04575e-21)
(-0.0565612 0.0644466 -4.41626e-23)
(-0.078542 0.0717203 1.95868e-21)
(-0.0111462 0.0273193 1.76745e-21)
(-0.0273254 0.0448307 -2.14096e-21)
(-0.00630335 0.0177322 -1.58862e-21)
(-0.0165401 0.0185108 5.23494e-21)
(-0.0261627 0.0239536 0)
(-0.00502833 0.00497983 4.11243e-21)
(-0.00738124 0.00749863 -7.26801e-21)
(-0.00222137 0.000338098 0)
(-0.0022187 0.000319679 0)
(-0.00449482 -0.00216337 -1.1554e-21)
(-0.026732 0.019398 5.24213e-21)
(-0.0412661 0.0217304 -1.5794e-23)
(-0.041192 0.0142289 -1.07818e-20)
(-0.0631473 0.00756687 1.08838e-20)
(-0.0388915 -0.0179072 3.80774e-21)
(-0.0542396 -0.017774 -3.09013e-21)
(-0.047848 -0.00260748 -3.80805e-21)
(-0.00653246 -0.00307252 7.17178e-22)
(-0.0130695 -0.00712381 2.03322e-21)
(-0.0214011 -0.00661238 1.4088e-21)
(-0.00506556 0.0134305 -3.05284e-21)
(-0.0292372 0.0495041 0)
(-0.0615868 0.06389 0)
(-0.093083 0.0359919 3.94706e-21)
(-0.108751 0.0553183 -2.76842e-21)
(-0.100986 0.0671294 0)
(-0.0222462 0.00259766 3.06258e-23)
(-0.0625853 0.0147995 0)
(-0.0100147 0.0309209 -1.03644e-22)
(-0.000828297 0.00174563 -6.08663e-22)
(-0.000217628 0.00203364 2.99374e-21)
(-0.00927257 0.00686847 7.49946e-21)
(-0.0146771 0.0105606 0)
(-0.0015372 -0.000782047 -3.39859e-21)
(-0.00343529 0.000635907 -1.07875e-20)
(-0.000487283 -0.00228936 5.95584e-21)
(-0.00139525 0.00145764 4.21848e-22)
(-0.00536769 -0.00068744 0)
(-0.0158621 0.00597518 0)
(-0.0257186 0.00783808 0)
(-0.0282105 0.000496302 0)
(-0.00743634 -0.000593451 4.8129e-21)
(-0.0162568 -0.00291793 -4.11249e-21)
(-0.0185319 0.000576278 0)
(-0.00131954 0.00992632 0)
(-0.000412946 0.00165011 2.72247e-21)
(0.000576046 0.00165713 -6.82886e-21)
(0.000646689 0.00194026 1.18868e-20)
(0.000629356 0.00176723 -7.18389e-21)
(0.000869132 0.00121833 -2.33875e-21)
(0.000465845 0.000631633 0)
(-0.00313226 -7.62967e-05 3.51864e-21)
(-0.00667561 0.001302 0)
(0.000156296 -0.00291736 0)
(-0.000222773 -0.00242171 0)
(0.000224828 -0.00300696 -1.29473e-21)
(-0.000780773 0.00108692 2.2358e-21)
(-0.00308351 0.000824661 0)
(-0.00238571 0.000434106 6.7684e-21)
(-0.00462121 0.000691523 1.7902e-21)
(-0.00597144 0.00148267 -6.75067e-21)
(0.00115097 0.00145129 0)
(0.000763982 0.00129105 5.27907e-21)
(0.00123282 0.00106261 8.56205e-21)
(0.00147905 0.00124065 -9.71152e-21)
(0.000669549 0.000343268 -1.74313e-22)
(0.00121145 0.000651135 7.23271e-21)
(0.000777421 -0.00230183 1.45296e-21)
(0.000200302 -0.00131131 -1.08954e-21)
(0.000746797 -0.00228419 -8.36605e-21)
(0.000949543 -0.00267077 1.14316e-20)
(0.00119234 -0.00252528 0)
(0.00132192 0.000946899 -5.35794e-21)
(0.000524633 0.000830586 -7.84274e-21)
(0.00170623 -2.16567e-06 1.16278e-20)
(0.00157608 -0.00101051 0)
(0.00106725 -0.00147016 0)
(0.000580781 -0.000815705 4.46018e-21)
(0.00195646 0.00083596 3.35729e-21)
(0.00208181 0.000790107 -5.95488e-21)
(0.00143498 0.000455057 -1.30425e-22)
(0.00189655 0.000593526 1.78609e-24)
(0.00157158 -0.00133526 0)
(0.00193891 -0.00162128 1.95046e-21)
(0.00218947 -0.00109467 -1.685e-21)
(0.00253957 0.000270711 -4.15561e-24)
(0.00244519 -0.000546092 7.99847e-22)
(0.0024589 -0.000118181 6.32231e-21)
(0.000878157 -0.000389245 -5.91216e-21)
(0.00159659 -0.000756311 0)
(0.00200635 0.000249562 -8.83102e-21)
(0.00243384 0.000198551 4.21033e-21)
(0.00219188 -3.59721e-05 4.48362e-21)
(0.00188674 -0.000434355 0)
(0.00229948 -0.000454642 -4.9122e-21)
)
;

boundaryField
{
    movingWall
    {
        type            fixedValue;
        value           uniform (1 0 0);
    }
    fixedWalls
    {
        type            noSlip;
    }
    frontAndBack
    {
        type            empty;
    }
    defaultFaces
    {
        type            empty;
    }
}


// ************************************************************************* //
