/*--------------------------------*- C++ -*----------------------------------*\
  =========                 |
  \\      /  F ield         | OpenFOAM: The Open Source CFD Toolbox
|  \\    /   O peration     | Version:  7.x                                   |
    \\  /    A nd           | Version:  dev
     \\/     M anipulation  |
\*---------------------------------------------------------------------------*/
FoamFile
{
    version     2.0;
    format      ascii;
    class       featureEdgeMesh;
    note        "written 2018-10-05T23:08:21";
    location    "constant/triSurface";
    object      AMI.eMesh;
}
// * * * * * * * * * * * * * * * * * * * * * * * * * * * * * * * * * * * * * //


// points:

247
(
(0.008 -0 0.4)
(0.007813 0.00172 0.4)
(0.007261 0.003359 0.4)
(0.006369 0.004841 0.4)
(0.005179 0.006097 0.4)
(0.003747 0.007068 0.4)
(0.00214 0.007708 0.4)
(0.000433 0.007988 0.4)
(-0.001294 0.007895 0.4)
(-0.002961 0.007432 0.4)
(-0.004489 0.006621 0.4)
(-0.005808 0.005502 0.4)
(-0.006855 0.004124 0.4)
(-0.007581 0.002554 0.4)
(-0.007953 0.000865 0.4)
(-0.007953 -0.000865 0.4)
(-0.007581 -0.002554 0.4)
(-0.006855 -0.004124 0.4)
(-0.005808 -0.005502 0.4)
(-0.004489 -0.006622 0.4)
(-0.002961 -0.007432 0.4)
(-0.001294 -0.007895 0.4)
(0.000433 -0.007988 0.4)
(0.00214 -0.007708 0.4)
(0.003747 -0.007068 0.4)
(0.005179 -0.006097 0.4)
(0.006369 -0.004841 0.4)
(0.007261 -0.003359 0.4)
(0.007813 -0.00172 0.4)
(0.119801 -0.006913 0.5)
(0.12 -0 0.5)
(0.12 -0 0.4)
(0.119801 -0.006913 0.4)
(0.119203 -0.013804 0.4)
(0.11821 -0.020649 0.4)
(0.116824 -0.027425 0.4)
(0.11505 -0.03411 0.4)
(0.112894 -0.040681 0.4)
(0.110363 -0.047118 0.4)
(0.107465 -0.053398 0.4)
(0.10421 -0.0595 0.4)
(0.100609 -0.065405 0.4)
(0.096674 -0.071093 0.4)
(0.092418 -0.076544 0.4)
(0.087854 -0.081741 0.4)
(0.082999 -0.086667 0.4)
(0.077868 -0.091305 0.4)
(0.072478 -0.095639 0.4)
(0.066848 -0.099656 0.4)
(0.060996 -0.103342 0.4)
(0.054941 -0.106684 0.4)
(0.048703 -0.109672 0.4)
(0.042304 -0.112296 0.4)
(0.035764 -0.114547 0.4)
(0.029105 -0.116417 0.4)
(0.02235 -0.1179 0.4)
(0.01552 -0.118992 0.4)
(0.008639 -0.119689 0.4)
(0.001729 -0.119988 0.4)
(-0.005186 -0.119888 0.4)
(-0.012085 -0.11939 0.4)
(-0.018943 -0.118495 0.4)
(-0.025738 -0.117207 0.4)
(-0.032448 -0.11553 0.4)
(-0.03905 -0.113468 0.4)
(-0.045522 -0.11103 0.4)
(-0.051843 -0.108223 0.4)
(-0.057992 -0.105057 0.4)
(-0.063948 -0.101541 0.4)
(-0.069692 -0.097688 0.4)
(-0.075204 -0.093511 0.4)
(-0.080467 -0.089023 0.4)
(-0.085462 -0.084239 0.4)
(-0.090173 -0.079176 0.4)
(-0.094585 -0.073849 0.4)
(-0.098682 -0.068277 0.4)
(-0.102452 -0.062479 0.4)
(-0.105881 -0.056472 0.4)
(-0.108959 -0.050278 0.4)
(-0.111675 -0.043918 0.4)
(-0.114019 -0.037411 0.4)
(-0.115985 -0.03078 0.4)
(-0.117566 -0.024047 0.4)
(-0.118756 -0.017233 0.4)
(-0.119552 -0.010363 0.4)
(-0.11995 -0.003458 0.4)
(-0.11995 0.003458 0.4)
(-0.119552 0.010363 0.4)
(-0.118756 0.017233 0.4)
(-0.117566 0.024046 0.4)
(-0.115985 0.03078 0.4)
(-0.114019 0.037411 0.4)
(-0.111675 0.043918 0.4)
(-0.108959 0.050278 0.4)
(-0.105881 0.056472 0.4)
(-0.102452 0.062478 0.4)
(-0.098682 0.068277 0.4)
(-0.094585 0.073849 0.4)
(-0.090173 0.079176 0.4)
(-0.085462 0.084239 0.4)
(-0.080467 0.089023 0.4)
(-0.075204 0.093511 0.4)
(-0.069692 0.097688 0.4)
(-0.063948 0.101541 0.4)
(-0.057992 0.105057 0.4)
(-0.051843 0.108223 0.4)
(-0.045522 0.11103 0.4)
(-0.03905 0.113468 0.4)
(-0.032448 0.11553 0.4)
(-0.025738 0.117207 0.4)
(-0.018943 0.118495 0.4)
(-0.012085 0.11939 0.4)
(-0.005186 0.119888 0.4)
(0.001729 0.119988 0.4)
(0.008639 0.119689 0.4)
(0.01552 0.118992 0.4)
(0.02235 0.1179 0.4)
(0.029105 0.116417 0.4)
(0.035764 0.114547 0.4)
(0.042304 0.112296 0.4)
(0.048703 0.109672 0.4)
(0.054941 0.106684 0.4)
(0.060996 0.103342 0.4)
(0.066848 0.099656 0.4)
(0.072478 0.095639 0.4)
(0.077868 0.091305 0.4)
(0.082999 0.086667 0.4)
(0.087854 0.081741 0.4)
(0.092418 0.076544 0.4)
(0.096674 0.071093 0.4)
(0.100609 0.065405 0.4)
(0.10421 0.0595 0.4)
(0.107465 0.053397 0.4)
(0.110363 0.047118 0.4)
(0.112894 0.040681 0.4)
(0.11505 0.034109 0.4)
(0.116824 0.027424 0.4)
(0.11821 0.020648 0.4)
(0.119203 0.013804 0.4)
(0.119801 0.006913 0.4)
(0.119801 0.006913 0.5)
(0.119203 0.013804 0.5)
(0.11821 0.020648 0.5)
(0.116824 0.027424 0.5)
(0.11505 0.034109 0.5)
(0.112894 0.040681 0.5)
(0.110363 0.047118 0.5)
(0.107465 0.053397 0.5)
(0.10421 0.0595 0.5)
(0.100609 0.065405 0.5)
(0.096674 0.071093 0.5)
(0.092418 0.076544 0.5)
(0.087854 0.081741 0.5)
(0.082999 0.086667 0.5)
(0.077868 0.091305 0.5)
(0.072478 0.095639 0.5)
(0.066848 0.099656 0.5)
(0.060996 0.103342 0.5)
(0.054941 0.106684 0.5)
(0.048703 0.109672 0.5)
(0.042304 0.112296 0.5)
(0.035764 0.114547 0.5)
(0.029105 0.116417 0.5)
(0.02235 0.1179 0.5)
(0.01552 0.118992 0.5)
(0.008639 0.119689 0.5)
(0.001729 0.119988 0.5)
(-0.005186 0.119888 0.5)
(-0.012085 0.11939 0.5)
(-0.018943 0.118495 0.5)
(-0.025738 0.117207 0.5)
(-0.032448 0.11553 0.5)
(-0.03905 0.113468 0.5)
(-0.045522 0.11103 0.5)
(-0.051843 0.108223 0.5)
(-0.057992 0.105057 0.5)
(-0.063948 0.101541 0.5)
(-0.069692 0.097688 0.5)
(-0.075204 0.093511 0.5)
(-0.080467 0.089023 0.5)
(-0.085462 0.084239 0.5)
(-0.090173 0.079176 0.5)
(-0.094585 0.073849 0.5)
(-0.098682 0.068277 0.5)
(-0.102452 0.062478 0.5)
(-0.105881 0.056472 0.5)
(-0.108959 0.050278 0.5)
(-0.111675 0.043918 0.5)
(-0.114019 0.037411 0.5)
(-0.115985 0.03078 0.5)
(-0.117566 0.024046 0.5)
(-0.118756 0.017233 0.5)
(-0.119552 0.010363 0.5)
(-0.11995 0.003458 0.5)
(-0.11995 -0.003458 0.5)
(-0.119552 -0.010363 0.5)
(-0.118756 -0.017233 0.5)
(-0.117566 -0.024047 0.5)
(-0.115985 -0.03078 0.5)
(-0.114019 -0.037411 0.5)
(-0.111675 -0.043918 0.5)
(-0.108959 -0.050278 0.5)
(-0.105881 -0.056472 0.5)
(-0.102452 -0.062479 0.5)
(-0.098682 -0.068277 0.5)
(-0.094585 -0.073849 0.5)
(-0.090173 -0.079176 0.5)
(-0.085462 -0.084239 0.5)
(-0.080467 -0.089023 0.5)
(-0.075204 -0.093511 0.5)
(-0.069692 -0.097688 0.5)
(-0.063948 -0.101541 0.5)
(-0.057992 -0.105057 0.5)
(-0.051843 -0.108223 0.5)
(-0.045522 -0.11103 0.5)
(-0.03905 -0.113468 0.5)
(-0.032448 -0.11553 0.5)
(-0.025738 -0.117207 0.5)
(-0.018943 -0.118495 0.5)
(-0.012085 -0.11939 0.5)
(-0.005186 -0.119888 0.5)
(0.001729 -0.119988 0.5)
(0.008639 -0.119689 0.5)
(0.01552 -0.118992 0.5)
(0.02235 -0.1179 0.5)
(0.029105 -0.116417 0.5)
(0.035764 -0.114547 0.5)
(0.042304 -0.112296 0.5)
(0.048703 -0.109672 0.5)
(0.054941 -0.106684 0.5)
(0.060996 -0.103342 0.5)
(0.066848 -0.099656 0.5)
(0.072478 -0.095639 0.5)
(0.077868 -0.091305 0.5)
(0.082999 -0.086667 0.5)
(0.087854 -0.081741 0.5)
(0.092418 -0.076544 0.5)
(0.096674 -0.071093 0.5)
(0.100609 -0.065405 0.5)
(0.10421 -0.0595 0.5)
(0.107465 -0.053398 0.5)
(0.110363 -0.047118 0.5)
(0.112894 -0.040681 0.5)
(0.11505 -0.03411 0.5)
(0.116824 -0.027425 0.5)
(0.11821 -0.020649 0.5)
(0.119203 -0.013804 0.5)
)


// edges:

247
(
(1 2)
(0 1)
(2 3)
(5 6)
(4 5)
(3 4)
(10 11)
(9 10)
(8 9)
(6 7)
(7 8)
(21 22)
(20 21)
(19 20)
(0 28)
(17 18)
(16 17)
(18 19)
(11 12)
(13 14)
(12 13)
(15 16)
(14 15)
(22 23)
(23 24)
(26 27)
(24 25)
(25 26)
(27 28)
(80 81)
(230 231)
(189 190)
(53 54)
(101 102)
(187 188)
(184 185)
(57 58)
(88 89)
(105 106)
(172 173)
(112 113)
(69 70)
(193 194)
(146 147)
(176 177)
(73 74)
(157 158)
(97 98)
(205 206)
(126 127)
(180 181)
(37 38)
(202 203)
(92 93)
(217 218)
(168 169)
(41 42)
(108 109)
(198 199)
(65 66)
(213 214)
(194 195)
(237 238)
(52 53)
(93 94)
(209 210)
(33 34)
(116 117)
(48 49)
(142 143)
(164 165)
(120 121)
(61 62)
(245 246)
(154 155)
(81 82)
(241 242)
(56 57)
(222 223)
(135 136)
(29 30)
(150 151)
(210 211)
(226 227)
(131 132)
(100 101)
(190 191)
(233 234)
(183 184)
(70 71)
(104 105)
(77 78)
(229 230)
(60 61)
(171 172)
(74 75)
(156 157)
(115 116)
(40 41)
(175 176)
(111 112)
(199 200)
(96 97)
(85 86)
(147 148)
(179 180)
(66 67)
(160 161)
(246 29)
(206 207)
(89 90)
(127 128)
(167 168)
(119 120)
(218 219)
(44 45)
(236 237)
(195 196)
(214 215)
(51 52)
(62 63)
(178 179)
(47 48)
(221 222)
(36 37)
(163 164)
(82 83)
(244 245)
(123 124)
(132 133)
(219 220)
(32 33)
(143 144)
(240 241)
(103 104)
(136 137)
(55 56)
(155 156)
(225 226)
(151 152)
(78 79)
(232 233)
(128 129)
(114 115)
(71 72)
(228 229)
(107 108)
(174 175)
(59 60)
(86 87)
(191 192)
(186 187)
(39 40)
(200 201)
(90 91)
(99 100)
(124 125)
(182 183)
(75 76)
(159 160)
(95 96)
(215 216)
(144 145)
(50 51)
(203 204)
(43 44)
(110 111)
(196 197)
(67 68)
(207 208)
(170 171)
(122 123)
(63 64)
(235 236)
(211 212)
(140 141)
(166 167)
(35 36)
(118 119)
(239 240)
(46 47)
(220 221)
(133 134)
(177 178)
(31 32)
(162 163)
(243 244)
(137 138)
(148 149)
(83 84)
(231 232)
(54 55)
(224 225)
(152 153)
(106 107)
(79 80)
(58 59)
(129 130)
(72 73)
(30 140)
(102 103)
(188 189)
(242 243)
(98 99)
(192 193)
(87 88)
(227 228)
(173 174)
(158 159)
(113 114)
(38 39)
(125 126)
(185 186)
(76 77)
(201 202)
(216 217)
(42 43)
(145 146)
(181 182)
(197 198)
(204 205)
(91 92)
(68 69)
(109 110)
(208 209)
(49 50)
(34 35)
(64 65)
(94 95)
(212 213)
(141 142)
(169 170)
(234 235)
(117 118)
(138 139)
(165 166)
(238 239)
(121 122)
(134 135)
(45 46)
(223 224)
(149 150)
(161 162)
(84 85)
(130 131)
(139 31)
(153 154)
)

// * * * * * * * * * * * * * * * * * * * * * * * * * * * * * * * * * * * * * //
