/*--------------------------------*- C++ -*----------------------------------*\
  =========                 |
  \\      /  F ield         | OpenFOAM: The Open Source CFD Toolbox
   \\    /   O peration     | Website:  https://openfoam.org
    \\  /    A nd           | Version:  8
     \\/     M anipulation  |
\*---------------------------------------------------------------------------*/
FoamFile
{
    version     2.0;
    format      ascii;
    class       volScalarField;
    location    "2000";
    object      epsilon;
}
// * * * * * * * * * * * * * * * * * * * * * * * * * * * * * * * * * * * * * //

dimensions      [0 2 -3 0 0 0 0];

internalField   nonuniform List<scalar> 
4109
(
0.11747
0.131146
0.120867
0.129885
0.13554
0.131509
0.136725
0.120775
0.145299
0.14512
0.143158
0.147259
0.120016
0.1347
0.139663
0.150927
0.151604
0.150014
0.151986
0.14115
0.121785
0.130575
0.131762
0.158831
0.160146
0.165315
0.120034
0.133796
0.118551
0.160476
0.149185
0.143121
0.132609
0.131279
0.137936
0.163076
0.164098
0.176558
0.137129
0.119756
0.134454
0.137097
0.122418
0.166563
0.154522
0.552366
0.250706
0.148882
0.143816
0.132456
0.138995
0.170777
0.178451
0.192212
0.150514
0.137737
0.117446
0.135028
0.139376
0.147573
0.144065
0.676743
0.177315
0.163067
0.157181
0.214512
0.552367
0.151029
0.143465
0.143799
0.207831
0.184805
0.236317
0.227419
0.224585
0.155865
0.155568
0.143973
0.134871
0.144295
0.140623
0.14355
0.149293
0.152092
0.182475
0.249376
0.590812
0.800467
0.810407
0.188968
0.184677
0.169516
0.163121
0.157874
0.18904
0.422802
0.151273
0.144028
0.237085
0.220717
0.209839
0.242332
0.248356
0.245916
0.251896
0.16572
0.161257
0.15539
0.141135
0.154474
0.20795
0.147206
0.151786
0.154743
0.161339
0.819466
0.302856
0.401518
0.566607
0.895538
0.847016
0.251392
0.206332
0.194386
0.178849
0.172038
0.165672
0.157374
0.429658
0.162603
0.154819
0.241512
0.227104
0.260361
0.251883
0.27434
0.256568
0.172095
0.169839
0.169727
0.155075
0.160973
0.211036
0.152184
0.157548
0.16278
0.166804
0.798248
0.474336
0.916132
0.599114
0.925789
0.284592
0.214462
0.20367
0.186773
0.17915
0.172491
0.166187
0.159653
0.415391
0.14945
0.235695
0.221824
0.269644
0.248224
0.279166
0.283649
0.300085
0.182716
0.178206
0.176964
0.163937
0.169641
0.226684
0.159222
0.165603
0.16892
0.176769
0.55631
0.972188
0.579932
1.00923
0.984631
0.313282
0.197387
0.207055
0.188715
0.172229
0.180788
0.17054
0.473868
0.155963
0.219138
0.230588
0.263616
0.24429
0.278158
0.297222
0.296313
0.338056
0.190363
0.188164
0.189464
0.177756
0.171334
0.228508
0.165789
0.171663
0.177974
0.183811
0.602745
1.05368
1.07892
0.666268
1.09662
0.310784
0.198463
0.210152
0.184847
0.178416
0.496607
0.168717
0.221466
0.234392
0.257909
0.247681
0.273648
0.29623
0.311801
0.335234
0.375038
0.20244
0.196969
0.196612
0.1891
0.178954
0.241354
0.179825
0.17246
0.211963
0.185977
0.194914
0.591025
1.15129
0.698355
1.1932
1.19331
0.329047
0.200871
0.208844
0.190326
0.547311
0.171992
0.224059
0.234168
0.26209
0.250339
0.277486
0.289834
0.315064
0.338442
0.362229
0.422392
0.213116
0.205303
0.202633
0.222027
0.181136
0.245351
0.184168
0.225183
0.203815
0.196864
1.24153
0.615501
1.29072
0.766868
1.3287
0.338579
3.64985
0.202894
0.215118
0.57712
0.1789
0.223586
0.237632
0.26306
0.249422
0.279759
0.293522
0.308307
0.33749
0.364643
0.402126
0.412958
0.479059
0.210093
0.219836
0.203514
0.234337
0.236736
0.18685
0.255206
0.199698
0.216297
0.207085
0.639349
1.36602
1.41528
0.770282
1.44486
0.353671
4.40738
3.87582
4.60697
3.18424
3.9592
2.78974
0.751789
0.187756
0.231892
0.238449
0.254164
0.252565
0.267561
0.280591
0.294009
0.311392
0.42399
0.327688
0.361238
0.397176
0.478459
0.541667
0.510046
0.617858
0.231727
0.225024
0.247547
0.251647
0.227121
0.199408
0.271783
0.207346
0.219421
0.699085
1.52036
1.50322
0.357047
9.80429
7.17486
4.72242
3.39321
4.36372
5.47821
0.724371
0.718617
0.810411
3.02079
2.61985
2.79068
2.54537
2.91514
1.38709
0.219226
0.305985
0.287326
0.273939
0.464694
0.284907
0.295613
0.311873
0.330418
0.42252
0.349641
0.387942
0.533201
0.479672
0.58986
0.576224
0.721148
0.806613
0.248663
0.251309
0.265022
0.264859
0.241316
0.231316
0.209936
0.269347
0.223009
0.789549
1.81154
10.1273
7.33936
3.60962
4.35717
5.52844
0.787731
0.840137
0.920336
0.843768
0.898342
2.13266
2.32175
2.24651
2.52334
2.99091
2.06867
1.18197
0.318469
0.328538
0.292148
0.454859
0.47188
0.310683
0.308342
0.329141
0.351503
0.414618
0.373177
0.542322
0.509188
0.595643
0.647278
0.729696
0.766512
0.276542
0.265319
0.232793
0.293498
0.281783
0.254491
0.245423
0.319437
0.236784
0.224545
0.330622
0.867927
9.84249
11.2001
7.49129
3.58597
4.45296
5.70717
0.830641
1.00247
1.18956
0.939052
1.02763
1.82948
1.47207
0.933202
1.00112
1.9927
2.18588
2.5446
2.95255
2.48307
2.13099
0.605202
0.34541
0.325283
0.44396
0.473825
0.325193
0.328341
0.349737
0.374207
0.400022
0.553597
0.513289
0.605108
0.660802
0.698565
0.758244
0.302253
0.319378
0.295075
0.248683
0.249057
0.270971
0.286961
0.259836
0.334763
0.307203
1.72585
2.49477
0.241297
0.235141
10.2517
7.29755
7.04484
11.4057
7.76151
3.63366
4.54875
5.91913
0.912761
0.805852
1.07055
1.20277
1.13502
1.4044
1.66362
1.0369
1.12286
1.90799
2.14635
2.52699
3.06518
3.27078
3.0873
3.87725
0.641533
0.409797
0.348279
0.429296
0.462463
0.350677
0.346672
0.370388
0.400717
0.498965
0.540404
0.586574
0.63925
0.693383
0.739233
0.773232
0.33738
0.335561
0.262453
0.261986
0.276741
0.293221
0.312759
0.358075
0.327079
0.264368
0.361002
0.458445
10.664
7.53975
6.47381
4.31497
4.3917
11.5843
7.60072
3.71551
4.14697
4.95762
1.00671
0.876719
0.838714
1.61549
1.25986
1.35025
1.15896
1.24828
1.86929
2.11717
2.63669
3.13222
0.944642
3.87766
3.92202
4.47703
0.854035
0.455402
0.386789
0.429775
0.462374
0.371143
0.373322
0.398424
0.498412
0.539005
0.584337
0.635693
0.680297
0.713927
0.770653
0.78289
0.376176
0.37787
0.283054
0.282784
0.298944
0.315767
0.331772
0.385257
0.349436
0.332945
0.283581
0.302705
10.4477
3.29171
6.16611
5.39711
4.35535
11.7404
7.70914
3.51002
4.33029
5.22201
6.51452
1.11569
0.862337
0.976294
0.867314
1.29764
1.56127
1.41971
1.87386
2.27455
2.71537
2.99761
0.994307
4.63627
4.8127
5.59008
0.963837
0.532628
0.421881
0.460089
0.42606
0.396681
0.401697
0.49467
0.535264
0.627015
0.578132
0.667738
0.709719
0.711793
0.759966
0.823951
0.421507
0.407905
0.417834
0.304297
0.303464
0.33032
0.34941
0.372163
0.364652
0.306071
0.349492
10.9353
7.30173
2.47821
2.7169
4.9653
4.35675
3.59392
8.10778
11.6782
3.65402
4.28726
5.04612
6.20935
1.23862
0.892838
1.06792
0.919245
0.979826
1.46353
1.57339
1.37164
1.94505
2.32959
2.63831
3.13335
1.47384
5.5545
5.89863
6.51441
1.20705
0.610475
0.44469
0.463032
0.429008
0.42959
0.502863
0.534682
0.617392
0.580799
0.681159
0.711792
0.749129
0.798987
0.857108
0.474619
0.456775
0.45167
0.400132
0.330298
0.332456
0.351184
0.365319
0.381387
0.330774
0.412399
11.7556
8.623
6.4432
5.50839
1.92308
2.16862
2.59469
4.1624
3.56008
3.08902
1.56117
8.09184
11.4655
11.6747
3.6375
4.28798
5.73851
5.04662
1.19567
0.943883
1.04419
0.973716
1.51542
1.70893
1.33248
3.13816
2.00076
2.24162
2.7031
1.59787
6.75771
7.2734
8.13355
0.47343
1.44719
0.631126
0.466627
0.466593
0.553997
0.531775
0.63635
0.64375
0.598481
0.691274
0.752918
0.811265
0.537123
0.500035
0.485586
0.428653
0.414886
0.351334
0.347284
0.371955
0.394283
0.355382
0.440619
0.617021
0.702066
8.36457
6.67936
5.12869
4.42389
1.77569
2.19127
2.62916
3.42764
2.94203
1.4646
1.24731
1.07337
0.86072
0.799973
10.8309
7.80641
10.8555
8.13343
3.16462
3.67723
4.21667
5.60405
1.17295
0.996242
1.0563
1.72703
1.52246
1.33607
1.26962
2.69359
2.68788
1.97713
2.33248
1.95453
9.22515
8.37601
9.37171
0.665823
1.55709
0.501353
0.557607
0.639125
0.583225
0.686671
0.732799
0.786202
0.541475
0.520549
0.46288
0.440208
0.418149
0.380346
0.375292
0.39912
0.513448
0.38419
0.741298
0.619381
0.680215
6.409
5.41963
4.19619
3.58392
1.79217
2.24733
2.47653
2.82512
1.57428
1.23732
1.30377
0.760503
1.04561
0.825783
0.900504
8.01285
6.67113
6.2525
5.15083
3.00251
3.52707
4.60312
2.63039
1.13366
1.0573
1.64541
1.40684
1.532
1.36024
1.22197
2.36244
2.40651
2.00183
1.80392
11.3055
10.5275
11.3645
1.07708
1.74685
0.552601
0.325172
0.635608
0.700508
0.759615
0.561334
0.498989
0.479265
0.452833
0.426529
0.403019
0.396361
0.462732
0.401858
0.691125
0.616146
5.04643
5.20355
4.42532
3.43665
2.91191
1.92208
2.12035
2.36741
1.64355
1.45871
1.28052
0.768993
0.819099
1.128
0.891278
0.984568
5.79421
5.17641
5.13596
4.29851
2.32756
3.11933
3.40962
2.69069
4.32648
1.1215
1.72947
1.56774
1.47289
1.30098
1.19121
1.80687
1.99252
2.03128
1.84968
15.185
13.6377
15.6486
3.07281
0.617819
0.901283
0.681399
0.743257
0.54147
0.513413
0.483969
0.459919
0.433655
0.429523
0.471748
0.437824
0.676729
0.587682
4.25038
4.32604
3.54113
2.79965
2.41798
1.82953
2.01411
1.58802
1.39072
1.23524
0.73914
0.801274
1.10345
0.887542
0.980629
4.27265
4.13339
3.34532
1.89333
2.0972
2.38375
2.6044
3.55148
1.50034
1.37258
1.25155
1.64509
1.58003
1.79791
2.6445
20.8832
27.396
9.45185
0.677889
1.11699
0.739188
0.560257
0.525762
0.4952
0.462851
0.458289
0.506338
0.641492
0.605448
3.51507
3.45936
2.81686
2.32353
2.05179
1.73467
1.51063
1.32712
1.17599
0.701314
0.770843
1.04884
0.849662
0.941949
3.40615
3.40176
2.78919
1.95536
2.1278
2.30828
1.81823
2.82758
1.41158
1.30882
1.50971
1.54038
1.67697
4.70891
46.1646
45.4984
21.3365
0.754544
2.34285
0.566036
0.536535
0.494038
0.502083
0.618568
0.663219
0.617523
2.83005
2.81309
2.33797
1.98757
1.76636
1.53933
1.35298
1.20186
0.722681
0.795328
1.07356
0.873576
0.967578
2.78428
2.77103
2.32925
1.85494
1.98324
1.68678
2.347
1.35724
1.43021
1.45601
1.52722
1314.61
10.0956
77.943
81.0474
51.3508
1482.17
0.57955
0.541244
0.55647
0.553666
0.848729
0.669739
0.63024
2.30199
2.32658
1.99986
1.72339
1.50583
1.33252
1.18733
0.734069
0.800822
1.07025
0.880699
0.966507
2.21336
2.23581
1.98269
1.6831
1.53066
1.95586
2.00959
1105.71
1207.67
23.4052
139.902
140.027
1582.08
1368.82
1951.57
0.594757
0.541555
0.613939
0.61065
1.41819
0.685712
0.625129
2.01128
2.00478
1.7267
1.50891
1.33495
1.1959
0.749651
0.819722
1.08029
0.982876
0.896165
1.97308
1.75619
1.5274
1.74006
1.81119
1.77997
765.32
976.108
1147.99
53.453
1532.89
1304.3
1833.58
1961.8
0.621454
0.617015
0.683104
3.05343
0.69939
0.634823
1.67086
1.68281
1.48697
1.32162
1.19071
0.750479
0.832169
1.08565
0.991898
0.909469
1.76057
1.57274
1.623
1.65276
1.63803
1.61587
713.751
612.019
896.955
1138.71
1897.4
1679.29
1524.21
1292.55
1911.25
1981.08
0.66036
0.681199
0.756289
0.681861
0.700275
0.74003
1.54804
1.37306
1.2523
1.13419
0.810669
0.822034
1.06372
0.964322
0.918441
1.57055
1.52481
1.52905
1.50797
1.48162
557.995
507.661
864.083
1195.15
2191.02
1964.94
1473.62
1725.45
1572.52
1349.32
2039.11
2022.59
0.695952
0.723846
0.739428
0.761953
0.822638
1.45043
1.33284
1.23495
1.13748
0.853103
0.878214
1.06159
0.990504
0.932848
1.42033
1.38876
1.34338
2455.9
445.493
441.086
884.195
1369.69
2212.77
2138.15
1260.19
1496.09
1817.22
1713.74
1528.07
2269.05
2098.64
0.726049
0.752581
0.787701
0.820098
1.3213
1.27177
1.20442
1.13311
0.86601
0.909154
1.06607
1.00829
0.953814
2922.65
2425.74
366.558
407.087
990.176
1881.82
2276.98
2426.36
1155.77
1260.41
1550.05
1968.59
2040.67
2051.53
2678.21
2236.97
3281.81
3048.1
2400.46
314.254
408.42
1333.68
4454.61
2421.11
2930.3
989.047
1163.32
1290.33
1654.63
2223.59
2896.07
4638.23
3463.3
2480.23
3394.9
3675.94
3102.09
2415.99
292.622
487.521
3078.79
2703.26
3777.23
876.859
999.861
1193.16
1365.6
1844.83
2686.6
6776.37
5315.36
3453.17
3907.3
4096.32
3120.62
2526.91
321.694
958.922
3284.44
5364.57
596.861
869.545
1048.51
1261.85
1514.64
2208.05
3717.95
12568.6
2795.77
3916
4585.07
4517.53
3182.78
2828.79
573.144
4693.96
129.287
537.012
868.468
1148.86
1397.4
1807.66
3042.55
7543.65
3063.21
3311.01
4523.36
5459.52
4926.52
3412.9
3637.16
10114.7
83.7184
121.44
493.345
873.595
1332.46
1665.91
2486.66
6174.32
2418.21
3583.27
4063.13
5417.21
6598.56
5399.56
4132.04
6823.26
91.1737
88.1423
117.574
462.994
887.889
1679.27
2289.5
4977.94
1335.56
2821.05
4207.41
5299.51
6782.12
8039.4
6297.2
7096.96
97.2206
99.1873
95.7611
118.783
447.043
922.915
2459.72
4556.32
1075.04
1555.2
3309.17
4970.8
7618.77
8911.92
9722.75
9537.23
97.6935
105.686
110.74
107.941
128.804
449.784
1032.72
5230.45
931.085
1168.05
1777.24
3983.94
5943.47
13014
12202.6
11296.4
92.3574
106.141
117.89
127.701
127.758
160.318
520.474
1298.79
947.316
1045.51
1275.06
2046.69
4978.79
7506.13
28326.6
10826.2
85.3085
100.281
118.327
135.867
154.166
163.411
249.577
1060.3
1075.09
1058.2
1172.29
1422.31
2424.83
6670.91
10984.4
78207.2
128.443
89.741
111.806
136.295
164.023
200.822
246.348
662.634
1322.67
1177.56
1182.89
1334.94
1654.71
3036.23
12537.4
14122.8
577.318
121.147
97.4207
128.797
164.455
213.956
307.816
600.098
2509.19
1512.96
1295.35
1344.6
1575.84
2076.09
4243.27
65619.5
901.601
523.262
117.716
109.704
155.394
214.419
328.767
763.861
2907.3
2989.31
1681.32
1456.05
1585.45
1989.34
3005.55
8008.76
1000.65
888.277
481.792
119.338
129.699
202.383
329.369
817.118
2632.13
3323.68
3700.3
1848.55
1706.94
2000.73
2869.96
6045.33
1174.19
1015.57
885.488
451.988
129.952
165.666
310.211
817.215
3161.95
3013.4
3837.56
4947.46
2038.53
2151.98
2889.07
5717.26
1268.78
1185.42
1069.43
890.65
436.159
162.005
249.035
767.054
3264.26
3428.77
3458.04
4524.75
7431.33
2348.91
3115.55
5793.76
1486.1
1271.45
1220.39
1175.98
905.834
438.918
251.587
601.828
3229
3710.17
3700.19
4000.63
5541.58
12822.6
3462.27
6261.69
1705.77
1513.66
1305.27
1295.57
1367.77
943.855
509.508
662.098
2903.07
3604.09
4291
4069.94
4734.13
7219.79
25689.2
8596.23
2081.54
1891.04
1763.55
1573.71
1385.7
1439.86
1727.5
1057.45
1047.99
2436.58
3024.39
4007.66
5023.73
4578.09
5879.64
10096.3
65665
1696.85
2082.96
1987.26
1868.43
1684.66
1541.87
1722.39
2538.74
1341.15
2175.37
2406.4
3076.52
4416.68
6031.39
5406.19
8045.99
13146.7
1848.79
1532.2
1655.61
2103.76
2130.35
2032.99
1882.48
1847.63
2376.51
5421.21
2184.94
2379.95
3094.5
4823.87
7410.04
7322.29
14246.4
1912.53
767.197
1437.49
1435.1
1656.07
2149.75
2379.98
2303.11
2257.79
2553.06
4759.86
851.62
1214.09
2240.39
2393.06
3160.72
5311.81
9194.78
9403.4
2070.58
600.924
1323.22
1380.75
1716.65
2234.07
2818.21
2787.28
3117.08
5150.23
678.457
1084.26
2377.57
2500.31
3394.95
6243.03
11438.4
2343.9
480.518
1260.86
1379.05
1878.4
2385.27
3654.26
3856.93
6354.02
563.561
1004
2651.74
2796.89
4114.48
9526.97
2826.51
395.877
1254.42
1449.48
2242.89
2651.36
5631.83
7834.92
489.629
972.56
3217.25
3592.22
7031.75
3658.19
339.231
1321.31
1653.51
3194.84
13421.3
450.592
999.501
4587.14
6728.98
5225.67
314.81
1521.32
2238.11
7538.14
448.601
1121.85
9843.65
343.421
2101.34
5136.52
527.3
1509.26
610.718
4999.59
1008.98
3464.45
0.906036
0.866223
0.890948
0.890848
0.920097
0.916268
0.929835
0.92923
0.947147
0.833831
0.854745
0.862956
0.886709
0.893388
0.916619
0.926052
1.00138
1.02547
1.04919
1.08567
1.11302
0.946267
0.958978
0.945288
0.94632
0.954563
0.949091
0.973685
0.965982
0.992034
1.15616
1.17647
0.806156
0.828101
0.83961
0.861515
0.873029
0.892844
0.909459
0.929268
0.945683
0.964009
0.983334
1.00303
1.03239
1.05983
1.10871
1.13645
1.22567
1.24035
0.976863
0.991819
1.01138
1.02748
1.05185
1.07375
1.11443
0.972262
0.976754
0.974619
0.973638
0.992968
0.981235
1.02188
1.00875
1.04181
1.11407
1.14391
1.31086
1.33641
1.22351
1.21766
1.29957
0.786535
0.805915
0.822444
0.841357
0.858984
0.877618
0.897747
0.915316
0.943137
0.963759
0.988879
1.00918
1.07473
1.1004
1.1468
1.17191
1.24367
1.26832
1.34968
1.38639
1.47996
1.49412
1.62743
0.999361
1.00867
1.02781
1.04395
1.06907
0.997952
0.999803
1.00857
1.00126
1.03385
1.01939
1.09376
1.06965
1.05299
1.07844
1.13793
1.14189
1.22508
1.25095
1.57236
1.36605
1.48764
1.3167
1.36264
0.775566
0.793406
0.813508
0.832538
0.853515
0.871551
0.89403
0.914402
0.935715
0.960862
0.991023
1.0322
1.16614
1.1015
1.21952
1.27427
1.34313
1.36496
1.45064
1.6761
1.72306
1.74177
2.01147
2.04358
1.94694
2.09121
2.0936
2.81344
1.02165
1.03131
1.04779
1.06374
1.14623
1.118
1.02625
1.02336
1.04387
1.03342
1.09658
1.07437
1.05996
1.19813
1.16828
1.08895
1.12833
1.15944
3.64591
3.07144
5.67886
1.23215
1.23537
1.32379
1.35516
1.61092
1.64165
2.30818
1.93735
1.5529
1.61972
0.781371
0.795379
0.82057
0.836528
0.86304
0.879671
0.909023
0.929018
0.991547
0.968536
1.04776
1.07531
1.17205
1.18902
1.36861
1.36485
1.54645
1.55882
1.73286
1.76398
1.94636
22.597
21.1895
12.492
2.00979
2.2331
2.40844
2.67696
2.95235
3.10197
3.09215
11.6168
4.93138
1049.78
1328.33
1243.77
1827.59
1541.23
1656.06
1768.21
1836.94
1.04704
1.04919
1.07232
1.08641
1.14232
1.11815
1.05712
1.05061
1.10025
1.08145
1.07018
1.252
1.21984
1.18996
1.16376
1.10701
1.15421
1.25089
1.18763
1.242
895.087
629.136
109.711
57.4579
25.0212
2.45978
4.12873
5.43271
14.8955
1.36657
1.37236
1.38185
1.37268
1.59622
1.62999
1.77315
1.70736
2.2885
961.274
1258.36
1472.92
1399.4
1619.79
1764.68
1798.5
1857.49
1809.36
1760.6
0.872323
0.838161
0.902804
0.891072
0.949132
0.941363
0.99976
0.99566
1.05293
1.05085
1.12072
1.11943
1.23884
1.27002
1.32029
1.33758
1.16786
1.45739
1.27043
1.32068
2.81108
2.80748
3.38575
3.81237
3.72526
58.3956
94.1978
300.549
182.554
56.3593
39.1381
6.34605
8.39709
12.1474
11.4478
36.1155
16.7671
14.8224
390.155
930.627
614.57
675.556
956.086
1183.45
1309.94
1303.31
1608.62
1596.8
1606.17
1519.25
1824.16
1883.85
1917.97
1741.71
1891.15
1811.85
1.07565
1.07597
1.097
1.11304
1.14477
1.12134
1.10973
1.09199
1.0817
1.30377
1.26924
1.23593
1.20897
1.18381
1.1606
1.12806
1.17413
1.18098
1.24309
1.24805
1.31055
1.24029
185.285
492.147
331.577
848.319
525.218
92.267
198.283
70.5917
23.671
1.37408
17.4401
3.04823
6.28987
4.36685
1.54783
1.48297
1.66854
1.56238
1.70443
1.6924
1.93643
1.79941
3.06315
949.793
1332.37
846.945
1460.97
1650.83
1261.07
1490.21
1772.12
1777.2
1795.27
1616.1
1797.48
5.16962
1.16055
103.692
29.1473
2.42357
1.18751
1.78938
1.13814
1.48441
1.09168
1.32561
1.29394
1.24863
1.40631
1.37204
1.61093
2.29399
1.44905
2.7448
4.13567
4.25711
7.77501
22.2782
8.64361
9.28674
39.2786
42.6516
14.8738
13.5946
19.0662
19.9651
26.6764
28.3054
122.09
185.514
344.733
238.092
132.762
83.7311
49.3175
54.2133
99.0979
66.7189
72.9952
608.527
480.488
648.937
963.389
854.352
1267.42
1172.32
1578.59
1415.64
1475.67
1678.88
1847.65
1773.77
1672.74
1856.61
1938.36
1945.5
1.1337
1.10419
1.10201
1.12192
1.14425
1.1257
1.11747
1.14618
1.3585
1.32212
1.28275
1.25211
1.22405
1.19715
1.1811
1.15871
1.40807
1.35052
1.40941
1.46357
1.42428
1.45732
1.19856
1.19412
1.20088
1.22587
1.38974
1.29629
1.33529
1.25595
505.847
397.28
234.285
35.5748
172.553
96.0815
1.47652
1.75769
1.68435
44.9392
4.37062
12.5491
7.75305
1.97774
1.89726
2.08151
2.00975
2.40404
2.10074
5.13854
465.923
1040.93
1313.55
901.498
645.935
1473
1208.14
1518.24
992.224
1796.57
1840.81
1923.31
1805.42
1665.78
222.275
246.253
58.9955
11.5541
252.703
218.873
30.4833
11.1294
21.316
6.40653
13.4786
4.2388
9.34152
2.35249
4.41397
10.0683
30.2806
18.3764
37.3157
20.0276
26.5623
65.0605
101.767
111.551
56.9106
53.9348
120.633
137.435
62.5483
70.1249
95.1421
96.2154
126.458
103.591
402.449
215.682
290.858
268.996
210.876
189.649
238.931
141.084
220.579
715.473
527.263
1197.74
937.108
1045.68
1487.64
1333.56
1675.78
1590.71
1779.74
1721.01
1.43958
1.40581
1.131
1.14783
1.15066
1.13509
1.13312
1.15844
1.17495
1.32593
1.28102
1.2634
1.22853
1.21536
1.18978
1.18098
1.16283
1.3706
1.33306
1.3531
1.37933
1.33166
1.36311
1.19353
1.20243
1.21602
1.26475
1.51805
1.37859
1.40984
1.30817
91.7277
191.391
291.512
1.63444
1.94021
1.90479
2.34463
2.31555
23.6795
102.28
7.07315
21.6089
2.57593
2.33307
3.99775
2.97965
8.20114
314.393
604.514
518.104
1137.6
1171.89
1386.88
1802.23
1939.66
1030.52
1658.71
2063.3
2000.78
2022.18
1875.22
223.085
198.716
102.352
249.123
231.572
290.705
234.68
151.637
319.667
395.977
225.18
107.492
175.424
66.7835
124.802
50.807
65.8056
89.0984
64.3428
143.219
110.999
103.018
103.657
113.164
219.9
241.689
259.806
295.875
188.732
181.458
321.596
339.321
206.502
226.582
290.374
283.38
325.087
552.355
456.729
517.294
358.671
458.228
467.892
415.254
503.788
1028.92
827.376
1386.24
1239.62
1595.04
1516.28
1676.99
1611.75
1.48239
1.42109
1.37562
1.34151
1.16679
1.16267
1.16433
1.17396
1.19202
1.29984
1.27313
1.24797
1.22833
1.20848
1.1949
1.18532
1.29692
1.31646
1.27661
1.30357
1.27943
1.30286
1.20864
1.20955
1.23754
1.33105
1.25382
1.2136
1.68084
1.52438
1.54328
1.41741
1.81454
234.365
140.673
2.20753
2.22072
2.54
2.6043
3.43982
4.09917
2.53495
26.7103
127.284
31.9285
9.78722
6.30188
28.6093
587.945
389.296
1298.77
1036.74
1762.26
1888.54
2168.3
2180.95
2255.21
2141.52
6.5474
33.2097
256.859
280.89
64.4772
236.906
310.739
252.15
417.657
447.12
256.891
338.187
455.192
436.253
454.386
299.513
376.786
278.136
242.559
228.088
388.281
290.902
400.961
332.461
340.478
455.494
502.94
502.832
531.391
448.469
427.704
379.653
594.44
611.943
472.927
491.749
631.92
628.634
820.985
927.44
805.22
768.2
834.082
745.623
807.006
1283.36
1180.9
1453.75
1385.28
1492.96
1430.91
0.8901
1.61201
1.49827
1.45981
1.41379
1.35988
1.32535
1.29072
1.18097
1.18323
1.18248
1.1849
1.21501
1.26199
1.24581
1.22486
1.21286
1.19849
1.23196
1.25327
1.23239
1.25515
1.24468
1.26406
1.21317
1.27098
1.28462
1.43036
1.25587
1.2813
1.92258
1.60493
1.68176
1.45372
2.26601
2.71126
2.82144
461.914
188.054
2.9687
2.37687
9.00158
4.25958
41.7686
34.5062
22.9522
142.845
231.809
81.0919
1261.48
781.622
1932.65
1714.01
2236.95
2287.31
2503.46
2455.47
3.29641
20.3763
254.279
394.89
41.0931
148.923
413.966
329.864
325.708
438.781
344.948
274.506
601.996
411.693
540.98
576.298
579.228
583.883
581.516
505.809
496.497
622.374
596.157
604.293
626.379
752.61
708.472
724.029
730.294
747.966
716.083
856.337
645.251
696.853
875.758
836.809
790.22
804.094
931.358
930.898
1010.36
1012.43
1199.23
1053.8
1070.22
1307.35
1251.51
1303.69
1258.77
0.781676
0.837025
0.893197
1.51169
1.46198
1.44294
1.40826
1.39154
1.35813
1.31211
1.25438
1.28782
1.38025
1.40434
1.19922
1.1863
1.17895
1.18039
1.21522
1.19539
1.1911
1.20151
1.21511
1.20599
1.22682
1.2224
1.23845
1.22642
1.26225
1.31067
1.4057
1.457
1.34405
1.83294
2.31747
1.59953
1.9095
2.59377
3.70559
2.87995
3.90334
7.52659
2.04413
914.478
535.25
37.864
14.9709
152.304
87.9929
401.749
712.851
301.153
1814.43
1582.08
2285.68
2399.43
2717.38
2723.52
2.41741
12.8075
215.295
451.6
24.6612
97.8931
464.631
483.332
258.638
289.786
473.279
335.324
544.267
478.406
267.327
344.061
668.451
503.137
566.537
538.405
624.403
679.769
678.089
631.878
661.37
720.593
705.028
707.945
857.121
806.988
771.026
755.873
704.854
847.145
869.501
953.162
892.884
901.65
974.539
988.321
956.665
969.346
999.645
1016.5
1189.23
1142.05
1053.79
1180.46
1155.74
0.769969
0.79115
0.822725
0.890018
0.933516
1.44812
1.36857
1.35775
1.33361
1.33293
1.23058
1.2768
1.25673
1.30488
1.33148
1.31988
1.30181
1.32665
1.28939
1.28725
1.24438
1.24589
1.23088
1.1902
1.18801
1.18893
1.19277
1.2231
1.18838
1.19738
1.20447
1.21109
1.20839
1.22414
1.2285
1.26079
1.35542
1.29629
1.42895
1.57948
1.53352
1.68712
2.20503
2.71922
1.90726
2.30386
3.28671
4.93338
15.2617
10.8998
9.39502
21.5759
76.0015
66.1413
1711.3
1161.48
336.087
312.092
801.722
1249.45
765.98
2263.58
2444.21
2798.29
2966.7
1.95616
7.67151
164.041
428.404
14.3261
57.5825
439.861
556.659
313.493
255.49
544.126
424.482
359.279
293.963
242.565
246.838
564.134
543.043
306.536
428.568
351.35
433.525
542.42
627.4
607.828
596.726
558.811
567.562
511.531
708.469
705.127
591.528
515.922
543.273
530.378
719.281
766.868
974.35
1007.61
1004.34
985.578
991.016
1011.6
1029.74
987.127
994.444
1.31814
0.778959
0.786078
0.806116
0.833585
0.868093
0.933675
0.978529
0.80162
0.799794
0.83465
0.826157
0.874288
0.85791
1.20022
1.21133
1.15694
1.16987
1.10948
1.12637
1.05916
1.08149
0.91836
0.896807
0.964467
0.938601
1.01109
1.03371
0.98424
1.29945
1.28969
1.27294
1.28009
1.24858
1.23759
1.26398
1.25785
1.25578
1.24176
1.26506
1.21756
1.22071
1.17622
1.18212
1.22968
1.19291
1.21011
1.19139
1.20774
1.21014
1.20634
1.213
1.21315
1.22397
1.234
1.23269
1.23219
1.22919
1.32634
1.25607
1.48483
1.37484
1.57296
1.83117
1.73006
2.04207
2.68279
3.92183
2.41953
3.06175
4.50796
13.6372
162.808
101.335
194.231
43.1697
178.309
459.153
570.865
2289.36
1852.45
1140.98
1866.72
1215.68
2889.53
2946.23
1.54429
4.90691
413.418
102.386
196.346
8.69955
34.8261
563.461
596.238
367.428
280.781
588.924
457.24
638.719
238.568
235.139
227.397
422.464
366.638
215.419
255.265
283.482
236.711
375.729
438.187
399.165
355.195
375.482
329.609
388.129
315.716
400.768
254.053
337.333
237.624
321.497
552.481
990.626
950.113
683.215
938.695
895.16
1.23761
0.973868
1.01874
0.812934
0.821297
0.846398
0.879396
0.918143
0.830915
0.833124
0.857943
0.856284
0.891338
0.884987
1.13584
1.14851
1.09661
1.11239
1.05468
1.07222
1.01245
1.03311
0.93121
0.918386
0.970739
0.99288
0.954551
1.24802
1.23878
1.22897
1.24424
1.23658
1.20137
1.20682
1.19661
1.21977
1.16453
1.17085
1.12433
1.13403
1.23017
1.2316
1.23101
1.24246
1.23516
1.24222
1.24421
1.23698
1.24813
1.26803
1.25049
1.25267
1.24841
1.37896
1.30141
1.31075
1.63873
1.45625
1.74353
2.20506
2.08055
2.59265
3.54956
7.71745
3.16771
4.97203
9.86919
74.3934
584.678
738.525
516.877
757.805
200.958
637.651
1122.65
1436.83
1943.81
3091.83
2335.11
1.38881
2.19668
4.32426
234.478
483.915
58.1975
143.009
14.7388
543.155
662.122
344.33
251.182
633.897
390.952
665.149
623.15
511.57
507.989
197.48
214.834
283.725
247.456
179.389
191.873
201.323
179.885
237.744
264.177
251.505
223.478
214.559
199.237
170.685
160.2
142.667
124.385
166.108
118.669
708.771
194.847
506.928
2929.47
1.02216
1.09883
0.9265
0.985687
0.848563
0.863855
0.89424
0.863239
0.866591
0.884744
0.885438
0.910683
0.90959
1.08792
1.10111
1.05082
1.06884
1.01253
1.03248
0.977002
0.999741
0.945371
0.967331
0.937071
1.20963
1.20818
1.20324
1.19712
1.15771
1.17084
1.16293
1.19195
1.1228
1.13472
1.08864
1.10001
1.23245
1.21767
1.25806
1.24788
1.32388
1.29695
1.34056
1.32956
1.28001
1.29527
1.34575
1.30494
1.27878
1.37903
1.29785
1.29819
1.52533
1.51586
1.84616
1.81891
2.61814
2.4812
3.95634
2.98042
5.64506
18.1745
4.41449
8.10373
52.4186
254.22
503.979
1306.48
1435.38
1173.79
1235.89
1628.7
2026.66
2283.58
29.3413
1.18161
1.2263
2.0116
2.71477
8.89793
376.915
91.616
184.791
625.234
436.772
230.086
299.216
634.212
654.238
319.836
410.419
664.045
607.522
527.012
419.936
171.515
194.327
187.617
178.239
153.365
157.354
152.09
152.952
156.305
166.766
118.744
122.035
95.7541
96.1701
85.7819
82.9715
112.639
84.2648
1.00084
1.06107
0.890977
0.912795
0.956035
0.89709
0.913228
0.913471
0.91711
0.935315
0.934257
1.05517
1.07047
1.01955
1.04268
0.990109
1.01112
0.961229
0.983132
0.957365
1.20663
1.18318
1.18141
1.18427
1.12978
1.14634
1.17927
1.14623
1.09631
1.11461
1.06783
1.08324
1.26478
1.24072
1.24022
1.30518
1.27962
1.41899
1.40567
1.39418
1.42634
1.54997
1.50114
1.50294
1.46295
1.43867
1.37237
1.33753
1.51323
1.45103
1.56257
2.04302
1.79575
3.36115
3.48377
2.42878
3.27582
5.40647
5.82041
23.8347
73.2132
19.5225
201.917
414.328
740.899
1401.07
1942.72
2010.58
2375.31
8029.23
136.871
1.09975
17.5456
45.8253
1.21607
1.31086
1.37932
2.24666
3.11591
7.98808
372.878
258.418
642.215
584.508
200.729
254.093
699.546
679.932
276.602
367.954
641.856
559.953
427.466
146.724
170.52
125.897
129.96
129.493
119.65
103.219
106.03
86.0001
89.7205
80.5138
81.7629
79.4795
82.2293
1.05214
0.934974
0.980081
1.01446
1.0255
0.93227
0.953129
0.943856
0.951839
0.957912
0.959454
1.03392
1.05669
1.00776
1.0302
0.981638
1.00507
0.980579
1.06155
1.17895
1.1779
1.1851
1.16166
1.13988
1.11595
1.18849
1.11464
1.09516
1.09132
1.25954
1.22226
1.28781
1.32975
1.33373
1.41547
1.3966
1.55814
1.59812
1.65571
1.63099
1.85218
1.84269
1.78093
1.59458
1.55484
1.75534
1.71574
1.89081
1.87991
2.63935
2.5518
6.37388
6.56206
6.0817
4.60386
35.5814
26.223
262.428
163.468
591.891
757.358
1115.2
1966.77
272.109
80.894
134.652
1.25485
1.17092
12.4438
38.5894
1.34554
1.61866
2.19016
2.65529
7.93722
551.219
429.597
715.2
694.772
176.599
232.058
728.94
653.248
532.39
417.853
274.58
125.221
145.49
97.8967
107.158
104.576
86.4606
90.1907
84.3604
84.9511
85.9952
87.6818
1.11671
1.1808
0.983676
0.997777
1.06924
1.13987
0.97637
0.991
0.977268
0.990011
0.989281
0.995767
1.05683
1.03962
1.01758
1.03431
1.01199
1.25363
1.09514
1.0789
1.07859
1.16915
1.17906
1.14501
1.23425
1.187
1.15816
1.12806
1.34395
1.33124
1.42548
1.39166
1.52609
1.51006
1.72267
1.67213
1.92187
2.02203
2.52973
2.34136
2.21333
1.99803
1.91867
2.09429
2.08789
2.41888
2.4911
2.4612
5.29915
4.1987
38.6604
12.9916
17.6673
10.2689
284.124
155.26
747.594
518.023
1059.12
941.388
417.495
191.95
282.778
63.0335
124.032
1.43503
1.27637
11.9042
32.5071
2.60521
1.52821
5.38339
676.858
581.28
757.623
774.657
237.907
173.907
144.462
736.575
544.117
440.039
309.722
254.377
102.056
116.774
87.1437
91.0229
85.7297
85.5705
90.9546
89.49
1.21231
1.32823
1.02766
1.08489
1.13979
1.25421
1.02498
1.05495
1.03567
1.01051
1.04899
1.04777
1.08205
1.05597
1.07435
1.33057
1.2867
1.14466
1.12966
1.14667
1.13444
1.19887
1.26805
1.18073
1.20513
1.17395
1.52693
1.51824
1.45002
1.66196
1.62517
1.87424
1.99118
1.9446
2.34792
2.28735
4.1739
3.21536
3.31882
3.00412
2.81998
2.70738
3.82478
3.85885
3.74725
3.38404
6.43125
23.2731
16.3911
200.245
89.9354
94.4485
585.467
408.606
963.446
783.341
342.136
538.407
645.317
163.769
314.22
48.7931
114.624
1.45534
1.835
7.57209
31.134
2.03084
4.60582
794.952
768.144
795.338
775.624
851.117
149.874
174.921
115.952
660.542
503.216
333.842
280.175
171.002
87.3731
97.3313
85.3364
83.4507
91.4506
88.5989
1.35719
1.57971
1.09962
1.17489
1.25284
1.42928
1.11191
1.0866
1.14916
1.14367
1.14105
1.13664
1.12918
1.42708
1.32352
1.19925
1.2104
1.18035
1.23734
1.3108
1.25831
1.31328
1.25241
1.85194
1.76178
1.71843
1.57856
2.28976
2.59703
2.39914
2.61251
2.96478
2.79357
3.89163
3.32943
4.95967
5.46526
5.38018
3.63284
8.20519
8.536
6.60916
74.7443
37.9319
201.406
183.033
507.851
399.301
799.225
707.543
365.505
547.702
677.035
165.404
323.537
45.0453
113.816
2.51871
1.82824
7.94264
5.32182
24.0015
672.078
890.122
880.638
890.064
814.804
864.26
702.786