/*--------------------------------*- C++ -*----------------------------------*\
  =========                 |
  \\      /  F ield         | OpenFOAM: The Open Source CFD Toolbox
   \\    /   O peration     | Website:  https://openfoam.org
    \\  /    A nd           | Version:  8
     \\/     M anipulation  |
\*---------------------------------------------------------------------------*/
FoamFile
{
    version     2.0;
    format      ascii;
    class       volVectorField;
    location    "2000";
    object      U;
}
// * * * * * * * * * * * * * * * * * * * * * * * * * * * * * * * * * * * * * //

dimensions      [0 1 -1 0 0 0 0];

internalField   nonuniform List<vector> 
4109
(
(10.1197 0.000522709 0)
(10.1223 0.0005526 3.86615e-21)
(10.124 0.00250457 0)
(10.1218 -0.000216757 -8.33042e-21)
(10.1241 0.00150621 4.00696e-22)
(10.1269 0.00237176 6.67261e-23)
(10.1278 0.00251376 -2.46052e-22)
(10.1334 0.0040168 0)
(10.1288 0.00239028 0)
(10.123 0.000387801 -2.86575e-21)
(10.125 0.00129231 3.48395e-21)
(10.1338 0.00314513 1.53493e-21)
(10.1363 0.0079781 2.24788e-21)
(10.1368 0.00429677 -1.08975e-22)
(10.1346 0.00331297 2.37352e-21)
(10.13 0.00222346 -8.93449e-22)
(10.1243 0.000617783 5.50906e-22)
(10.1267 0.00160394 6.44631e-23)
(10.1356 0.00323634 0)
(10.1404 0.00369838 -3.23159e-21)
(10.159 0.00816471 1.84881e-21)
(10.1427 0.00842488 -5.07556e-21)
(10.1466 0.00601289 -5.72888e-22)
(10.1312 0.00229317 -2.2368e-21)
(10.1285 0.00175631 9.11735e-21)
(10.1256 0.000843562 3.08466e-21)
(10.1329 -0.00211934 0)
(10.1362 -0.00228149 9.07218e-22)
(10.1404 -0.00217131 -6.58198e-23)
(10.136 0.00326006 0)
(10.1419 0.00323781 0)
(10.1465 0.00464741 3.91958e-21)
(10.2209 -2.1487e-05 -1.01531e-21)
(10.1507 0.00705229 -7.10669e-21)
(10.1489 0.00602131 0)
(10.132 0.00233954 -1.60401e-22)
(10.1279 0.00153831 -9.0572e-21)
(10.1266 0.000754418 -5.02419e-21)
(10.1328 -0.00216755 -1.45049e-21)
(10.1249 -0.00161547 0)
(10.1421 -0.00303757 -1.37669e-22)
(10.1392 -0.00333358 4.96662e-22)
(10.1418 -0.00893162 -1.48058e-22)
(10.1365 0.00334359 -2.26489e-21)
(10.1421 0.00323774 0)
(9.48072 0.02609 7.08068e-22)
(10.135 -0.000371781 3.81138e-22)
(10.1489 0.00466778 -1.40856e-22)
(10.1496 0.00403269 6.76621e-22)
(10.2167 -0.00105441 4.62957e-21)
(10.1535 0.00534044 4.26087e-21)
(10.1308 0.00203026 -1.32224e-22)
(10.1291 0.00184978 -8.79232e-21)
(10.1281 0.00102586 1.9779e-21)
(10.1329 -0.00250136 -9.47763e-22)
(10.1266 -0.00186339 0)
(10.119 -0.000356059 0)
(10.1416 -0.00527528 1.16933e-22)
(10.143 -0.00417266 1.57936e-22)
(10.1389 -0.0034758 0)
(10.2401 -0.00276661 -1.44654e-22)
(8.88598 0.0142792 0)
(10.1362 0.00330489 -7.73282e-21)
(10.1427 0.00324006 0)
(10.1487 0.00439772 6.05544e-22)
(10.2461 -0.000862702 -3.86816e-22)
(9.74635 0.0280898 1.58275e-20)
(10.15 0.0037554 0)
(10.1508 0.0063189 -9.57337e-22)
(10.2301 -0.000417204 -5.83952e-22)
(10.1298 0.00127568 2.64786e-21)
(10.1309 0.00226662 5.86659e-21)
(10.1355 0.00387923 0)
(10.1318 0.00141113 1.19553e-20)
(10.1331 0.00226676 -1.78431e-20)
(10.1339 -0.00284567 9.5589e-22)
(10.1284 -0.00195314 0)
(10.1266 -0.00176274 0)
(10.1205 -0.00046526 0)
(10.2207 0.00675882 1.69737e-22)
(10.1468 -0.00464629 8.12237e-22)
(10.1416 -0.00486225 -7.41793e-22)
(10.1451 -0.00360837 8.87345e-23)
(10.1395 -0.00389651 0)
(10.3543 0.018611 1.20932e-21)
(10.258 4.2105e-06 0)
(9.37364 -0.0429394 0)
(9.21595 0.0310559 -3.08724e-20)
(8.84226 0.020239 -1.05316e-21)
(10.1348 0.0027333 3.02089e-21)
(10.1371 0.00329107 7.73597e-21)
(10.1432 0.00333683 0)
(10.1492 0.00449676 -3.17555e-22)
(10.1506 0.00351035 -1.97839e-22)
(10.2875 -0.0049594 0)
(9.9927 0.0122722 0)
(10.1483 0.0059447 0)
(10.2206 0.000547134 3.09528e-22)
(10.1371 0.00394396 6.29361e-22)
(10.1342 0.00322054 -1.17891e-20)
(10.1318 0.00248841 1.34259e-20)
(10.1365 0.00384099 8.46925e-21)
(10.1383 0.00452181 5.39516e-21)
(10.1346 0.0027402 6.2816e-21)
(10.1341 0.00122859 2.45303e-21)
(10.1347 -0.00332993 3.99714e-22)
(10.1305 -0.00263534 3.53714e-22)
(10.1263 -0.00154138 0)
(10.1212 -0.000621802 2.85584e-21)
(10.2091 0.00182154 1.57343e-22)
(10.3295 0.00916147 0)
(10.1451 -0.00537175 -3.22572e-22)
(10.1455 -0.00428731 -3.18934e-23)
(10.1454 -0.00403127 0)
(10.1399 -0.0042078 0)
(9.01875 -0.0380267 -1.43721e-20)
(10.1706 -0.0132137 -1.07914e-21)
(9.90987 -0.0362109 1.72628e-20)
(9.56751 0.0395097 -7.21482e-21)
(9.04842 0.0114377 1.10082e-20)
(8.75676 -0.0032018 8.62503e-21)
(10.2989 0.00205923 1.37776e-22)
(10.1362 0.00330882 -1.38059e-20)
(10.1394 0.00391008 -2.38858e-21)
(10.1441 0.00368206 -7.637e-22)
(10.1495 0.00479081 0)
(10.1514 0.00386918 6.31107e-22)
(10.1472 0.00611216 -2.01405e-21)
(10.0767 0.00439751 3.38721e-21)
(10.3091 -0.00162307 0)
(10.2078 0.000909733 2.35511e-22)
(10.1403 0.0052159 6.9823e-21)
(10.1373 0.00405898 -4.3855e-21)
(10.1387 0.00472616 -8.28381e-21)
(10.1409 0.00582635 5.13098e-22)
(10.1372 0.0015583 0)
(10.1375 0.00379609 -4.98044e-21)
(10.1355 -0.00386367 -7.81789e-22)
(10.1307 -0.00281488 0)
(10.1268 -0.00171298 1.0765e-21)
(10.1225 -0.00075805 -2.8555e-21)
(10.2107 -0.00126681 -2.4586e-23)
(10.3261 -0.00306385 0)
(10.1429 -0.00663474 0)
(10.1466 -0.00443985 -3.04372e-22)
(10.1457 -0.00420851 1.51994e-22)
(10.1404 -0.0046975 0)
(9.13903 -0.034639 -8.2341e-21)
(9.85909 -0.0391254 5.30517e-22)
(9.08636 0.00957708 0)
(9.64725 0.0186159 -3.79706e-21)
(8.76039 0.0225231 0)
(10.2684 -0.0013046 -1.28644e-22)
(10.1399 0.00437837 1.10066e-20)
(10.1395 0.0039119 2.3884e-21)
(10.145 0.00417902 7.26123e-22)
(10.1502 0.0056198 2.35059e-21)
(10.1514 0.00440418 1.1043e-21)
(10.1467 0.00696223 1.23339e-21)
(10.2021 0.00307885 -3.89425e-23)
(10.1213 0.00211363 -3.43479e-24)
(10.3213 -0.0026583 -2.35336e-22)
(10.1441 0.0061926 1.96035e-21)
(10.1401 0.00451721 0)
(10.1416 0.0062679 -3.18569e-22)
(10.1449 0.00725681 -1.69149e-21)
(10.1426 0.00639836 -2.10542e-22)
(10.141 0.0053848 0)
(10.1408 0.00177879 0)
(10.1365 -0.00457258 2.99754e-22)
(10.132 -0.00341553 1.16599e-22)
(10.1281 -0.00208734 -2.3232e-21)
(10.1232 -0.000647484 -4.80909e-22)
(10.2068 -0.00458597 -2.07635e-23)
(10.3266 -0.0041415 0)
(10.1409 -0.0076784 6.2351e-22)
(10.1483 -0.00455663 -1.49078e-22)
(10.1457 -0.00489216 -6.0461e-22)
(10.1414 -0.00561423 -3.68958e-22)
(9.7744 -0.0296482 -5.5374e-22)
(8.88281 -0.0128505 0)
(9.70548 0.01646 3.91835e-24)
(9.09609 0.0060014 4.71468e-22)
(8.76179 0.0207014 1.07026e-22)
(10.286 0.00324593 1.78235e-22)
(10.1456 0.00443482 -2.52975e-23)
(10.1462 0.00485359 2.52891e-23)
(10.1519 0.00621339 -1.21932e-21)
(10.1479 0.00757808 -1.98646e-21)
(10.1549 0.00409785 -8.79603e-22)
(10.1906 0.00623113 1.05907e-21)
(10.1074 0.00497632 -2.26936e-22)
(10.3172 0.000767921 1.36373e-22)
(10.1469 0.00535486 -9.45308e-22)
(10.1476 0.00636083 4.95403e-22)
(10.146 0.00828869 -4.96229e-22)
(10.1487 0.00754595 -6.81181e-22)
(10.1477 0.00931916 4.92263e-22)
(10.146 0.00770131 2.4652e-22)
(10.1421 0.00501419 1.86129e-21)
(10.1449 0.000841335 0)
(10.1378 -0.00529423 -6.38814e-22)
(10.1332 -0.00388264 3.09613e-22)
(10.1295 -0.00251076 1.99225e-21)
(10.1248 -0.000892618 3.76498e-22)
(10.1929 -0.00629124 -3.4996e-22)
(10.3171 -0.00338693 -5.89624e-22)
(10.1398 -0.00786649 3.99868e-22)
(10.1495 -0.00534195 2.64765e-23)
(10.1463 -0.00650181 8.82806e-22)
(10.1428 -0.00686699 0)
(9.76132 -0.0191684 -1.31365e-21)
(8.86914 -0.00639189 6.34959e-22)
(9.0755 -0.00157327 0)
(9.68093 0.0117743 5.64976e-23)
(8.75444 0.0197017 -7.38495e-22)
(10.313 0.011655 1.9824e-22)
(10.1528 0.00531963 0)
(10.1531 0.00566198 -9.28057e-22)
(10.1565 0.00419801 -3.03706e-21)
(10.1737 0.0130425 2.20901e-21)
(10.1067 0.00387637 1.34978e-24)
(10.3164 0.00248388 -4.72291e-22)
(10.1533 0.00703926 1.10878e-21)
(10.1536 0.00847235 2.06775e-21)
(10.1501 0.00887642 2.03831e-21)
(10.1543 0.0101952 -1.41238e-21)
(10.1519 0.0101459 -1.0376e-21)
(10.1498 0.0104187 0)
(10.1473 0.00743646 -2.09463e-21)
(10.146 0.00574317 -2.13864e-21)
(10.1493 0.000841575 0)
(10.1392 -0.00591995 -2.92891e-21)
(10.1346 -0.00422852 7.66958e-21)
(10.1312 -0.00287808 3.40692e-21)
(10.1263 -0.000971578 -6.42427e-22)
(10.1769 -0.00777146 -2.6625e-22)
(10.3019 -0.00405746 1.57506e-22)
(10.1509 -0.00736827 -7.08116e-22)
(10.1405 -0.00801017 9.94956e-22)
(10.1407 -0.0063071 0)
(10.1483 -0.00888612 0)
(10.1446 -0.00788381 0)
(9.82313 -0.0166464 2.90289e-22)
(8.87943 -0.00898712 4.84325e-22)
(9.68283 0.00518928 5.28759e-23)
(9.07973 -0.00895925 6.59764e-23)
(8.7607 0.0212316 -6.46416e-23)
(10.3286 0.017406 -4.88596e-22)
(10.1584 0.00307141 0)
(10.1566 0.00472581 4.89447e-22)
(10.1652 0.0164947 7.42173e-22)
(10.1063 0.00380844 -1.11408e-21)
(10.3181 0.00804517 5.77732e-22)
(10.1571 0.0068444 -3.3613e-22)
(10.1584 0.00752562 -2.72103e-22)
(10.1553 0.0119659 -3.93878e-22)
(10.1597 0.0100892 0)
(10.1567 0.0139834 0)
(10.1542 0.0113773 -3.20026e-22)
(10.1523 0.011358 2.707e-21)
(10.1505 0.00816189 -1.11802e-20)
(10.1503 0.00585899 0)
(10.1538 0.000960335 0)
(10.1372 -0.00502812 4.13019e-21)
(10.1344 -0.00404965 -5.60567e-21)
(10.1283 -0.00110945 2.38776e-21)
(10.1395 -0.00566502 4.13291e-21)
(10.1526 -0.0104397 1.86544e-21)
(10.279 -0.00504211 -3.29875e-21)
(10.1513 -0.00929536 -9.94713e-23)
(10.1429 -0.00689409 0)
(10.1463 -0.00853875 0)
(10.1507 -0.0100382 -5.79379e-22)
(8.88509 -0.00588939 2.94122e-22)
(9.86049 -0.0142486 5.13804e-22)
(9.08962 -0.024931 8.08599e-22)
(9.68727 -0.0084721 -7.79965e-22)
(8.76627 0.0185048 0)
(10.3381 0.0272513 1.04912e-21)
(10.0158 -0.0174738 1.28541e-19)
(10.1675 0.0158505 0)
(10.1636 0.009958 -2.33321e-22)
(10.1129 0.00559613 -1.49822e-20)
(10.3296 0.00657118 -4.2596e-21)
(10.1529 0.0129961 1.46683e-21)
(10.1558 0.0114481 -4.54114e-22)
(10.1611 0.0120411 2.86264e-21)
(10.154 0.0166647 4.50176e-22)
(10.1632 0.0144974 -8.25599e-23)
(10.1585 0.0158269 -1.1105e-22)
(10.1568 0.0125625 0)
(10.1552 0.0122717 -6.05767e-21)
(10.1543 0.008946 2.26052e-20)
(10.1549 0.00632973 0)
(10.1556 0.00431451 6.99841e-21)
(10.1571 -0.00064657 0)
(10.129 -0.000612957 0)
(10.1351 -0.00351623 2.41847e-21)
(10.132 -0.0024655 -3.68295e-21)
(10.1405 -0.00555216 2.07516e-22)
(10.1444 -0.00710559 1.60854e-21)
(10.1387 -0.0145187 0)
(10.2596 -0.00887732 1.42677e-21)
(10.1558 -0.0112564 1.26124e-21)
(10.148 -0.00901036 6.05467e-22)
(10.1532 -0.0103951 0)
(9.8888 -0.00619839 1.21794e-21)
(8.86759 -0.000141616 -6.9656e-22)
(9.10582 -0.0298173 4.08579e-20)
(9.74103 -0.0150082 -2.82165e-20)
(8.78121 0.0160066 3.20694e-20)
(10.3336 0.0299788 -1.04319e-21)
(10.0116 -0.00270879 -2.12873e-19)
(10.0142 -0.0198724 5.55645e-20)
(10.0108 -0.0138407 -6.24706e-20)
(10.022 -0.0211791 -8.27651e-20)
(10.0172 -0.00651306 1.88736e-19)
(10.028 -0.0266654 7.33552e-20)
(9.97291 0.0171393 2.77618e-20)
(10.3405 -0.0152747 1.95172e-20)
(10.2798 -0.0294903 -1.8469e-20)
(10.1918 -0.000132735 -1.49579e-21)
(10.2033 0.00179256 -5.97299e-21)
(10.158 0.0114159 -2.86854e-22)
(10.1574 0.0177851 0)
(10.1617 0.0209158 -1.6718e-21)
(10.1652 0.0160227 0)
(10.161 0.0176581 0)
(10.1612 0.00788455 4.36584e-20)
(10.1599 0.0137817 1.1025e-21)
(10.1587 0.0130583 1.88825e-20)
(10.1589 0.0096621 -1.90245e-20)
(10.1589 0.00369265 -6.77116e-21)
(10.1583 -0.00140972 0)
(10.1603 0.00079008 0)
(10.1565 -0.00255315 1.26084e-20)
(10.1319 -0.00168146 -5.39649e-22)
(10.1355 -0.00320578 -7.57632e-21)
(10.1426 -0.00594693 -4.84174e-21)
(10.1462 -0.0074503 -5.20875e-21)
(10.1497 -0.00935172 -7.58267e-22)
(10.1389 -0.0198009 0)
(10.2597 -0.0109616 -2.95145e-21)
(10.1589 -0.0122234 -1.1334e-21)
(10.1552 -0.0102457 -1.65755e-23)
(9.89174 0.000597747 7.65494e-21)
(8.76561 0.00648191 5.74526e-22)
(8.97732 0.0202303 2.60206e-20)
(10.3268 0.0113342 9.37714e-22)
(10.0008 -0.0019757 -5.61701e-20)
(10.0042 -0.00162365 5.6198e-20)
(10.007 -0.00903327 0)
(10.0193 -0.024615 -2.27457e-20)
(10.0112 -0.0246202 8.5565e-20)
(10.0069 -0.0176146 7.22581e-20)
(10.1498 -0.00528816 0)
(10.1551 -0.0109784 7.04214e-21)
(10.1567 -0.0250616 5.64101e-21)
(10.0258 -0.00782287 -2.87988e-21)
(10.0314 -0.0193403 -1.90875e-20)
(10.0242 -0.0120496 4.80247e-20)
(10.0341 -0.0269415 -6.53492e-21)
(10.0258 -0.0304438 2.77505e-20)
(9.51767 0.0553152 -6.07598e-20)
(10.3523 -0.0333578 -4.44107e-21)
(10.3281 0.00757205 2.71183e-20)
(10.273 -0.00107804 -9.87156e-21)
(10.1691 0.013399 -1.6818e-22)
(10.1652 0.0072491 1.72797e-21)
(10.1565 0.0225192 -1.31091e-20)
(10.1693 0.0209605 0)
(10.1676 0.0183086 0)
(10.164 0.0197425 -1.08898e-21)
(10.1639 0.0102041 0)
(10.1635 0.0150015 0)
(10.1629 0.0135791 -6.4521e-21)
(10.1657 0.00203 0)
(10.1645 0.00461487 -3.16408e-20)
(10.1607 -0.00498498 -7.61682e-20)
(10.1647 -0.00157997 5.15158e-20)
(10.1657 -0.0165272 0)
(10.1735 -0.0339538 1.58982e-20)
(10.1346 -0.00158084 8.01561e-21)
(10.1383 -0.00392987 -4.1198e-22)
(10.1454 -0.0066462 -2.01316e-20)
(10.148 -0.00788263 1.13698e-20)
(10.1514 -0.00973672 2.14318e-22)
(10.1569 -0.0104415 -1.64072e-22)
(10.1442 -0.0206535 8.48914e-22)
(10.2491 -0.0144596 1.06573e-21)
(10.161 -0.0117177 -4.75968e-22)
(9.93293 -0.0197097 -1.17695e-20)
(8.57838 0.008176 1.81992e-20)
(10.0004 -0.00286474 -1.16407e-19)
(10.003 -0.00950436 4.95176e-20)
(10.0163 -0.0308069 -2.80899e-20)
(10.0092 -0.0286034 1.95091e-21)
(10.0052 -0.0203263 -1.37941e-19)
(10.1443 -0.0173744 -1.26954e-20)
(10.1378 -0.0078407 1.07973e-20)
(10.1448 -0.0341505 0)
(10.1839 -0.056242 -3.01276e-20)
(10.1624 -0.0451708 -1.65777e-20)
(10.0401 -0.0164018 1.68668e-22)
(10.0392 -0.0109789 -2.7048e-20)
(10.0414 -0.0308603 -1.92441e-22)
(10.0335 -0.0353819 -6.31565e-21)
(10.0237 -0.0376696 -2.91935e-20)
(8.65195 0.044262 -4.47893e-20)
(9.83373 0.103506 1.29625e-20)
(10.364 0.041596 -1.30758e-20)
(10.3117 0.0226614 1.09521e-21)
(10.1779 0.0168047 4.663e-21)
(10.1679 0.0100117 2.81143e-21)
(10.1714 0.00907214 9.26485e-21)
(10.1591 0.0225834 -2.51979e-21)
(10.1699 0.0231584 2.7759e-21)
(10.1702 0.0206152 0)
(10.1676 0.0223373 -8.98928e-21)
(10.1674 0.0134647 -1.03623e-20)
(10.1678 0.0161231 0)
(10.1736 0.00194761 -2.23527e-20)
(10.1721 0.00573228 -1.11675e-20)
(10.1733 -0.0032938 4.92346e-20)
(10.1709 -0.00945536 -1.83653e-20)
(10.1811 -0.0231485 -1.12839e-20)
(10.1951 -0.0411622 4.74111e-20)
(10.1378 -0.00203351 -4.83884e-21)
(10.1416 -0.00474648 8.98217e-21)
(10.1632 -0.0128243 2.24206e-21)
(10.1506 -0.0086361 6.63577e-21)
(10.1495 -0.00850204 0)
(10.153 -0.0102977 1.793e-21)
(10.1584 -0.0107044 9.99476e-23)
(10.1539 -0.0103296 0)
(10.1536 -0.0178197 -1.84152e-21)
(10.1495 -0.0180194 -1.56292e-21)
(10.2878 -0.00593312 1.36107e-21)
(10.0372 -0.0552289 3.23338e-20)
(10.0008 0.00226677 -1.46975e-20)
(10.0003 -0.00386019 0)
(10.0021 -0.01203 3.14758e-20)
(10.0142 -0.0363873 -7.01321e-21)
(10.0068 -0.0331526 0)
(10.0036 -0.0233578 1.04861e-20)
(10.2207 -0.0691142 -5.37947e-20)
(10.1206 -0.0105269 -7.21077e-23)
(10.1008 -0.0129385 0)
(10.1302 -0.0240938 -5.0347e-21)
(10.1345 -0.0432648 -1.21522e-21)
(10.0575 -0.0100883 0)
(10.0784 -0.00945993 0)
(10.1675 -0.0701451 1.45894e-20)
(10.148 -0.0552182 -1.43228e-22)
(10.051 -0.0260739 1.04399e-19)
(10.0432 -0.038896 4.98956e-20)
(10.0332 -0.0448613 1.2747e-20)
(10.0211 -0.0446396 0)
(8.45732 -0.00198718 3.57186e-20)
(9.4174 0.108926 0)
(10.2835 0.0579718 1.03689e-21)
(10.3183 0.0251719 -1.20733e-21)
(10.1958 0.018091 6.2405e-21)
(10.1722 0.0124915 1.19625e-20)
(10.1769 0.0102265 0)
(10.1604 0.0240899 3.8378e-21)
(10.1718 0.0254174 -8.11151e-22)
(10.1732 0.0234583 -3.5038e-21)
(10.1721 0.0251152 -1.67754e-21)
(10.1729 0.0168239 2.02057e-22)
(10.1838 0.00153624 -1.29298e-20)
(10.1806 0.00643603 1.4503e-20)
(10.1855 -0.00515605 1.34325e-20)
(10.1849 -0.013456 -1.21888e-20)
(10.201 -0.0269599 -4.74703e-20)
(10.228 -0.0455912 3.37733e-24)
(10.1415 -0.0025717 -2.68816e-21)
(10.151 -0.00716567 -2.9638e-20)
(10.1463 -0.00598221 1.86027e-20)
(10.1726 -0.0182951 -2.11416e-21)
(10.1648 -0.0129032 -6.41117e-22)
(10.1547 -0.0110804 -1.70106e-21)
(10.1566 -0.0118224 0)
(10.1598 -0.0112338 1.31066e-21)
(10.1569 -0.012014 8.54353e-21)
(10.1589 -0.0128463 0)
(9.66491 -0.0878139 -8.22458e-20)
(9.38434 -0.0905961 1.47456e-20)
(10.1402 -0.00816936 0)
(10.3265 0.00276508 5.39924e-21)
(10.0004 0.0027967 1.43858e-19)
(10.0022 0.00844749 -1.36758e-19)
(10.0046 0.00104042 0)
(10.0003 -0.0045691 -1.95932e-20)
(10.0014 -0.0137752 7.19028e-20)
(10.0115 -0.0425225 5.93447e-21)
(10.0037 -0.035203 0)
(10.0013 -0.0245212 -1.65584e-19)
(10.2051 -0.0913327 5.3769e-20)
(10.2663 -0.067416 2.2631e-20)
(10.1189 -0.0326662 -3.41659e-21)
(10.1015 -0.0267186 0)
(10.1186 -0.0514684 4.85897e-21)
(10.0819 -0.0232818 0)
(10.065 -0.0273032 -8.72491e-20)
(10.1471 -0.0803743 1.53644e-20)
(10.1315 -0.0602344 3.85967e-21)
(10.0554 -0.0402268 -2.00921e-20)
(10.0446 -0.0518536 -1.17281e-20)
(10.0301 -0.0533043 4.04507e-20)
(10.0165 -0.0520196 -3.83508e-20)
(8.16082 -0.0231892 5.07127e-21)
(9.11397 0.0769004 3.32755e-21)
(9.05086 -0.0677811 6.7988e-21)
(10.2356 0.0382474 -2.31523e-21)
(10.3408 0.0272779 2.11346e-21)
(10.2081 0.0225449 -2.37889e-21)
(10.1786 0.0164839 0)
(10.1847 0.0145592 -1.9358e-20)
(10.1621 0.0273228 -4.53356e-21)
(10.1735 0.0282435 7.57109e-21)
(10.1779 0.026629 1.49451e-21)
(10.1772 0.0273326 1.10408e-20)
(10.1908 0.0106024 1.93516e-20)
(10.1962 0.00464169 0)
(10.2005 -0.00370938 0)
(10.2024 -0.0143302 0)
(10.2291 -0.0241515 0)
(10.2668 -0.0398415 -4.67373e-20)
(10.3058 -0.0634192 -7.31236e-20)
(10.1458 -0.00304179 2.68802e-21)
(10.1519 -0.0055121 8.285e-21)
(10.1666 -0.0137475 2.31794e-21)
(10.1658 -0.0139334 1.76252e-22)
(10.1612 -0.0122642 -1.57439e-21)
(10.1627 -0.0135142 -1.83489e-21)
(10.165 -0.0148977 0)
(10.1587 -0.0117074 0)
(10.1617 -0.0137906 0)
(10.1705 -0.00446652 0)
(10.3663 -0.0137479 3.98673e-20)
(10.2982 -0.0295084 -3.01784e-20)
(10.0006 0.00484524 3.58961e-20)
(10.0023 0.0108663 -2.79996e-20)
(10.0049 0.0140269 -6.96649e-20)
(10.0137 0.00793531 0)
(10.0073 0.0109469 0)
(9.99992 -0.00489811 5.48284e-21)
(10.0009 -0.0153965 4.3064e-20)
(10.0078 -0.0459492 -1.27234e-21)
(10.0001 -0.0396196 -2.96595e-20)
(9.9994 -0.0301186 2.68305e-19)
(10.1824 -0.107199 1.46071e-22)
(10.2518 -0.0954689 4.55504e-20)
(10.3319 -0.104495 -7.17737e-20)
(10.0714 -0.0447521 -6.54531e-20)
(10.1023 -0.050845 2.07729e-20)
(10.0892 -0.0406296 2.99561e-20)
(10.125 -0.0862513 0)
(10.1146 -0.0631384 -1.98647e-21)
(10.0586 -0.058824 -1.61892e-20)
(10.0413 -0.0623408 -4.45075e-20)
(10.023 -0.0623646 2.25349e-20)
(10.0111 -0.0568603 -1.42391e-20)
(10.3285 -0.0677786 0)
(8.038 -0.014486 -4.76767e-21)
(8.96722 0.0593661 2.26381e-21)
(8.85645 -0.0372869 -5.17395e-21)
(10.2084 0.0304271 7.19021e-22)
(10.3521 0.0290949 -7.02391e-22)
(10.2155 0.0307942 0)
(10.1841 0.0284762 0)
(10.1921 0.0277763 1.98759e-20)
(10.1773 0.0321437 0)
(10.1638 0.0352917 -7.58921e-23)
(10.1836 0.0299123 -1.45095e-21)
(10.2009 0.0245174 -1.98644e-20)
(10.21 0.0182424 0)
(10.2187 0.00815859 0)
(10.2256 -0.00593137 0)
(10.2611 -0.0151211 0)
(10.2944 -0.0339253 3.65579e-20)
(10.3373 -0.0485367 2.1358e-19)
(10.3657 -0.0675922 1.71742e-20)
(10.1492 -0.00212407 0)
(10.1556 -0.00580714 -8.38694e-21)
(10.1675 -0.0131691 0)
(10.1667 -0.014674 5.91539e-21)
(10.1676 -0.0170009 -1.54814e-20)
(10.1681 -0.0192187 4.73091e-21)
(10.1679 -0.0166613 -1.61793e-20)
(10.1626 -0.0123114 2.60851e-21)
(10.1643 -0.0135407 0)
(10.167 -0.0177082 2.3887e-20)
(10.1792 -0.0113266 0)
(10.2687 0.0176706 1.65124e-20)
(10.0006 0.00603111 -6.63385e-20)
(10.024 0.00792154 2.01454e-20)
(10.0034 0.0164452 0)
(10.0063 0.0204319 -1.20023e-21)
(10.0114 0.0147303 5.67413e-20)
(9.99982 -0.00454651 0)
(9.99905 -0.0147247 -4.79313e-20)
(10.0024 -0.0501734 3.2978e-20)
(9.99526 -0.0388498 0)
(9.99592 -0.0297263 0)
(9.99821 -0.0211413 -1.81873e-21)
(10.1556 -0.117115 -2.45014e-21)
(10.3758 -0.143289 1.00419e-19)
(10.2208 -0.121584 -2.29047e-21)
(10.2941 -0.132217 -7.35898e-20)
(10.105 -0.0877152 5.44151e-20)
(10.0758 -0.0604833 0)
(10.0949 -0.0660406 -2.45705e-20)
(10.0558 -0.0714821 0)
(10.0311 -0.0740531 4.99352e-21)
(10.0152 -0.0694365 4.30361e-20)
(10.0038 -0.0620341 -1.71704e-20)
(10.2778 -0.0441449 0)
(7.9717 -0.014303 2.83077e-21)
(8.87344 0.0583283 -3.67986e-21)
(8.77244 -0.0338201 -7.70806e-22)
(10.1706 0.0247903 9.30149e-22)
(10.3546 0.0321529 1.28295e-21)
(10.2175 0.0455129 6.02306e-22)
(10.2025 0.0342646 2.16538e-20)
(10.192 0.0326873 -1.05212e-20)
(10.1839 0.0375321 1.26236e-21)
(10.1675 0.0486905 -1.35771e-21)
(10.2142 0.0323738 -2.86062e-20)
(10.2268 0.0271796 1.6989e-20)
(10.2517 0.00461023 0)
(10.2397 0.0185533 0)
(10.2846 -0.00717839 -1.30663e-20)
(10.3523 -0.00679751 7.7733e-20)
(10.3228 -0.0104963 0)
(10.3868 -0.0273202 -2.16467e-19)
(10.4095 -0.0981652 -1.38817e-19)
(10.1534 -0.00199113 4.60116e-21)
(10.1592 -0.0053905 -2.49145e-21)
(10.1663 -0.0119285 1.79753e-20)
(10.1677 -0.0190122 4.11257e-21)
(10.1709 -0.0178417 1.34427e-20)
(10.1709 -0.0223755 -1.95321e-21)
(10.1721 -0.0176953 3.80178e-22)
(10.1683 -0.0143427 -2.20968e-21)
(10.1694 -0.0195195 8.68001e-21)
(10.1625 -0.0250281 0)
(10.2431 -0.0113445 -2.68419e-22)
(10.0002 0.00576233 -4.06147e-20)
(10.0016 0.0153461 8.27225e-20)
(10.0388 0.00743758 -2.92252e-20)
(10.0282 0.0195713 -5.32089e-20)
(10.0054 0.0232376 3.26329e-20)
(10.0107 0.0237524 -2.44794e-20)
(10.0205 0.0216374 5.20136e-20)
(9.99812 -0.0115128 0)
(9.99964 -0.00369928 0)
(9.99562 -0.0495731 -1.67799e-20)
(9.99021 -0.0373561 -5.57348e-20)
(9.99263 -0.0285307 1.70767e-20)
(9.99556 -0.0198242 1.86058e-21)
(10.1294 -0.120859 -1.73377e-20)
(10.4297 -0.194632 -1.72999e-19)
(10.1871 -0.141318 -4.56041e-21)
(10.3358 -0.183466 2.63723e-20)
(10.2546 -0.170511 2.9959e-20)
(10.0896 -0.0917668 -4.40395e-20)
(10.0717 -0.0773532 -1.3086e-20)
(10.106 -0.120135 2.44097e-20)
(10.0438 -0.0869613 -7.25958e-20)
(10.0215 -0.0847293 0)
(10.0054 -0.076222 -1.34113e-20)
(9.99426 -0.0625065 -3.59075e-21)
(10.3034 -0.0456746 5.32576e-22)
(7.9323 -0.0224567 0)
(8.78229 0.0615759 1.11796e-21)
(8.69509 -0.029958 0)
(10.1348 0.0194149 -1.3352e-21)
(10.3541 0.0365252 -5.95683e-22)
(10.2088 0.0612127 9.45014e-23)
(10.2077 0.0498954 0)
(10.1941 0.0439204 8.91624e-22)
(10.1761 0.0610213 1.57171e-20)
(10.2255 0.0439689 0)
(10.2399 0.0380358 3.36348e-20)
(10.2713 0.0133248 -4.37394e-21)
(10.256 0.0289894 -3.87107e-20)
(10.3098 0.00233194 -2.53118e-21)
(10.3587 0.0308328 9.62245e-20)
(10.3963 0.00753181 -4.42875e-20)
(10.4345 -0.0478568 1.61606e-19)
(10.4675 -0.13848 3.97359e-20)
(10.157 -0.00187223 0)
(10.1639 -0.00511432 0)
(10.1708 -0.0110176 -2.44092e-20)
(10.1724 -0.0147098 6.50929e-22)
(10.1684 -0.0231036 -9.49344e-21)
(10.1722 -0.0205373 0)
(10.1739 -0.0264318 -2.42201e-21)
(10.1746 -0.0191447 -3.83645e-21)
(10.1736 -0.0203775 3.53033e-21)
(10.1691 -0.0270729 4.36098e-21)
(10.2608 -0.0136446 1.21375e-22)
(10.0001 0.00434484 3.33593e-20)
(10.0004 0.0131244 8.36169e-20)
(10.0018 0.0206618 -1.22276e-19)
(10.0037 0.0245432 -4.43346e-20)
(10.057 0.00733527 0)
(10.0413 0.0194755 3.40821e-20)
(10.0334 0.03018 -4.10981e-20)
(10.0089 0.0290949 -1.4293e-20)
(10.0168 0.0302369 0)
(10.0272 0.0310925 -8.7478e-20)
(10.0774 0.00695094 -4.2277e-21)
(9.99704 -0.00801399 5.01374e-20)
(9.99954 -0.0022859 0)
(9.99985 0.00370556 0)
(9.98793 -0.0473082 -2.07407e-20)
(9.98541 -0.031578 4.3941e-20)
(9.99237 -0.0154097 -5.40336e-20)
(9.98822 -0.0235022 0)
(10.1493 -0.155353 -3.39668e-22)
(10.3836 -0.243827 1.49854e-20)
(10.2114 -0.19427 5.89645e-21)
(10.2897 -0.220207 3.09665e-22)
(10.0817 -0.115731 3.31837e-20)
(10.0606 -0.0989232 5.99438e-20)
(10.1122 -0.160296 0)
(9.98325 -0.0602266 4.40581e-20)
(10.0332 -0.103693 -7.78878e-22)
(10.0094 -0.0952299 0)
(9.99233 -0.0781718 -1.65782e-20)
(10.2869 -0.0421399 -7.69813e-23)
(7.90017 -0.0266418 4.54501e-22)
(8.69859 0.0680734 -6.96855e-22)
(8.64889 -0.0269004 -1.2348e-21)
(10.2081 0.0708765 0)
(10.1219 0.0070456 1.13208e-22)
(10.3478 0.0396389 -1.18652e-22)
(10.2062 0.0673073 -2.32819e-20)
(10.1901 0.070448 3.65631e-21)
(10.2487 0.0628178 -7.64401e-21)
(10.2332 0.0613143 2.84107e-20)
(10.2906 0.0373683 -5.48592e-20)
(10.3239 0.0460275 -1.00528e-19)
(10.2711 0.0408266 7.16389e-20)
(10.3827 0.0484268 0)
(10.4462 0.00871222 9.69009e-20)
(10.496 -0.0759749 0)
(10.159 -0.00160861 4.33893e-21)
(10.1713 -0.00411293 4.48015e-20)
(10.1755 -0.0092665 0)
(10.1774 -0.0143866 -3.78299e-22)
(10.1783 -0.0210359 -1.05456e-20)
(10.1699 -0.0293795 0)
(10.1746 -0.0225973 0)
(10.1776 -0.0295617 -3.54828e-22)
(10.1794 -0.0213229 1.02196e-20)
(10.1701 -0.0342116 1.12842e-21)
(10.2637 -0.01918 -1.08355e-21)
(10.1563 0.000496413 -5.2792e-21)
(10.1516 0.00160117 0)
(9.99937 0.013091 1.34616e-20)
(9.99925 0.0213921 0)
(10.0029 0.0287688 4.65751e-20)
(10.0068 0.0324785 1.43336e-20)
(10.0576 0.0203674 0)
(10.0441 0.0315039 5.71785e-20)
(10.0345 0.0368945 3.77466e-21)
(10.0144 0.0367237 0)
(10.0243 0.0380241 0)
(10.0758 0.0219088 -4.31361e-22)
(10.0983 0.00594224 -4.05325e-21)
(10.1177 0.00349176 0)
(10.1334 0.000155506 4.69657e-20)
(10.1467 0.00504563 -4.64895e-20)
(9.99927 0.000644308 0)
(9.99572 -0.00260997 0)
(9.99966 0.00200016 0)
(9.99823 0.0115427 0)
(9.97159 -0.0514494 -2.15788e-20)
(9.98002 -0.039516 5.48455e-20)
(9.98184 -0.0249424 0)
(9.98895 -0.00926057 5.34773e-20)
(10.1641 -0.213958 2.08682e-20)
(10.3307 -0.287345 2.31501e-20)
(10.2387 -0.251976 -2.1105e-20)
(10.0513 -0.123405 2.83594e-21)
(10.0774 -0.139378 -6.30607e-22)
(10.0969 -0.191823 1.04858e-20)
(10.1188 -0.229938 -3.69098e-20)
(9.96073 -0.0655641 0)
(9.97672 -0.0760172 -2.64631e-21)
(10.0186 -0.118593 0)
(9.99121 -0.099825 0)
(10.3062 -0.0435383 0)
(8.6075 0.0737822 -1.71711e-22)
(7.85608 -0.0309111 -2.61734e-22)
(8.71543 -0.0394397 -1.01421e-20)
(10.3332 0.0514099 0)
(10.1662 -0.00310467 -4.25602e-21)
(10.2187 0.095718 -3.98721e-21)
(10.2414 0.0727653 -1.4068e-20)
(10.3203 0.0856253 0)
(10.2789 0.080222 0)
(10.3615 0.0806178 -3.90037e-20)
(10.4432 0.0643417 4.53769e-21)
(10.5129 -0.00720493 2.47414e-20)
(10.1693 0.000871998 -5.35423e-20)
(10.1803 -0.00708094 0)
(10.1829 -0.0128299 1.44896e-20)
(10.1842 -0.02084 3.79327e-22)
(10.1847 -0.0230748 1.82936e-21)
(10.1726 -0.036732 -1.16265e-21)
(10.1786 -0.0255226 1.53683e-21)
(10.1826 -0.0324543 0)
(10.2663 -0.0251165 3.02665e-22)
(10.172 -0.0416183 -7.42423e-22)
(10.1567 0.0133454 2.24342e-20)
(10.1668 0.00522781 8.76083e-21)
(10.1611 0.00984485 -2.85446e-21)
(9.99798 0.0212399 1.63995e-20)
(9.99973 0.0292926 -3.18884e-20)
(10.005 0.0372145 -1.61028e-20)
(10.0118 0.0416956 1.36545e-20)
(10.0586 0.0335476 0)
(10.0451 0.0409547 2.20703e-20)
(10.0334 0.0450172 -3.57086e-21)
(10.0219 0.0456583 1.12457e-21)
(10.0746 0.0364046 -1.72015e-20)
(10.0962 0.0270773 1.46476e-20)
(10.0917 0.0378028 -7.58203e-21)
(10.1582 0.0227917 1.36508e-20)
(10.1155 0.0254652 -1.12734e-23)
(10.1474 0.0238568 -1.15524e-21)
(10.1332 0.0238432 4.13652e-21)
(9.99665 0.00852685 0)
(9.99262 0.00363112 0)
(9.99564 0.0196143 6.10248e-20)
(9.98541 0.00244218 -1.07189e-19)
(9.96077 -0.0417151 -5.6796e-20)
(9.97242 -0.031124 2.54978e-20)
(9.98089 -0.0125222 1.70428e-20)
(9.94677 -0.0509315 0)
(10.1844 -0.276264 0)
(10.2717 -0.324645 1.49775e-20)
(10.0366 -0.1556 -2.35479e-20)
(10.0557 -0.21008 3.16361e-20)
(10.0613 -0.168766 3.08041e-20)
(10.0653 -0.248086 -1.58197e-20)
(10.1285 -0.293561 6.26107e-21)
(9.96894 -0.0962661 -4.44771e-20)
(9.94791 -0.0813482 5.29387e-20)
(9.99174 -0.129619 -3.8617e-20)
(10.3892 -0.0543832 2.69698e-21)
(8.51383 0.103514 8.96699e-21)
(7.7855 -0.0326881 -4.76209e-20)
(8.72386 -0.0980738 -5.91469e-21)
(10.3602 0.0608981 1.69472e-20)
(10.2567 0.0168261 -1.84406e-20)
(10.2521 0.108576 4.20982e-20)
(10.263 0.081934 -2.31756e-20)
(10.3417 0.118069 1.84261e-19)
(10.4263 0.118302 3.11711e-19)
(10.5174 0.0634368 -2.35528e-19)
(10.1814 -0.00175953 0)
(10.1886 -0.00957394 -3.0384e-20)
(10.1911 -0.019101 -1.09318e-22)
(10.1918 -0.0239163 -1.18872e-20)
(10.1893 -0.034207 1.19152e-21)
(10.1782 -0.0446548 3.8853e-22)
(10.1845 -0.0294108 5.87391e-22)
(10.2331 -0.0325455 -2.6785e-22)
(10.1693 -0.0499114 0)
(10.1671 0.0145983 0)
(10.1816 0.00471262 0)
(9.99305 0.028335 1.01853e-19)
(9.99684 0.0297935 -1.67968e-20)
(10.001 0.0385731 4.97943e-20)
(10.0089 0.0477004 0)
(10.0193 0.0526348 -4.34752e-20)
(10.059 0.0454454 -6.45436e-21)
(10.045 0.0510229 -1.45254e-21)
(10.0316 0.0546801 1.48173e-20)
(10.0744 0.0484589 1.09748e-20)
(10.0909 0.0553781 1.71174e-20)
(10.1065 0.0473647 -6.03765e-21)
(10.1683 0.0239674 5.97119e-21)
(10.1638 0.03079 1.45147e-20)
(10.1218 0.0443004 1.21137e-21)
(10.1537 0.0350602 -2.50647e-21)
(10.1395 0.0399704 -1.3244e-20)
(9.99258 0.0164992 5.80918e-20)
(9.98735 0.0117366 7.48861e-20)
(9.9891 0.0248703 -2.20973e-19)
(9.97704 0.000862716 -1.78156e-20)
(9.93091 -0.0667377 1.64503e-20)
(9.95033 -0.0236202 -2.77351e-19)
(9.96442 -0.0122697 8.90097e-20)
(9.9341 -0.0260278 0)
(9.98672 0.031705 4.48728e-20)
(10.2074 -0.353165 -3.08447e-21)
(9.99981 -0.170994 0)
(10.0114 -0.202567 6.75972e-20)
(10.0204 -0.249351 -3.92455e-20)
(10.0698 -0.303697 0)
(10.1382 -0.371546 -4.53939e-21)
(9.94628 -0.162163 -9.4494e-20)
(9.95311 -0.129224 3.23228e-20)
(9.92724 -0.11967 -1.34337e-19)
(10.4167 -0.0955998 7.43951e-21)
(8.3233 0.223339 3.28135e-21)
(7.78368 -0.0421472 2.98591e-19)
(8.31898 -0.228053 -1.70314e-19)
(10.3275 0.149798 -1.86142e-21)
(10.2874 0.143101 -1.60568e-19)
(10.3539 0.148171 8.16666e-20)
(10.3952 0.167537 -1.84502e-19)
(10.5062 0.136402 -7.77205e-21)
(10.1936 -0.00418449 1.59934e-20)
(10.1984 -0.0150089 -3.41992e-23)
(10.2006 -0.0227294 1.69806e-20)
(10.1986 -0.034513 -1.12866e-21)
(10.185 -0.0540191 -7.48788e-22)
(10.1927 -0.0333001 1.86609e-21)
(10.2111 -0.0519618 1.56205e-22)
(10.1762 -0.0604559 2.01943e-20)
(10.1818 0.0133097 0)
(10.1974 0.00374525 -1.82524e-20)
(9.99125 0.0370807 -3.71472e-20)
(9.9965 0.0391263 -3.32715e-20)
(10.0037 0.0512448 0)
(10.0162 0.0614163 -2.77385e-20)
(10.0295 0.0631227 1.58375e-20)
(10.0593 0.0565503 6.20869e-21)
(10.0439 0.063539 0)
(10.0758 0.0615359 -3.09938e-21)
(10.0945 0.063143 -1.72529e-21)
(10.1133 0.062718 4.38892e-21)
(10.1812 0.0243717 -1.04364e-20)
(10.1751 0.0349677 0)
(10.1314 0.0589062 -5.37863e-22)
(10.1642 0.0447215 -1.05412e-21)
(10.1492 0.0525807 -7.25853e-21)
(9.97911 0.0114813 -3.24532e-20)
(9.98209 0.0238852 0)
(9.96 0.000543151 2.05488e-19)