/*--------------------------------*- C++ -*----------------------------------*\
  =========                 |
  \\      /  F ield         | OpenFOAM: The Open Source CFD Toolbox
   \\    /   O peration     | Website:  https://openfoam.org
    \\  /    A nd           | Version:  8
     \\/     M anipulation  |
\*---------------------------------------------------------------------------*/
FoamFile
{
    version     2.0;
    format      ascii;
    class       volVectorField;
    location    "0.013";
    object      U;
}
// * * * * * * * * * * * * * * * * * * * * * * * * * * * * * * * * * * * * * //

dimensions      [0 1 -1 0 0 0 0];

internalField   nonuniform List<vector> 
424
(
(-0.00277695 -0.000124477 6.73851e-26)
(-0.0131743 0.000907358 0)
(-0.0119925 0.0025489 2.09072e-23)
(0.000107458 0.00295809 -1.017e-24)
(-0.0420252 0.00463159 -2.5255e-23)
(-0.0206662 0.000792853 -3.37019e-23)
(-0.00274886 0.0126011 2.79962e-24)
(-0.000935821 0.0138812 -3.90001e-25)
(-0.0609116 0.00238589 -3.59011e-23)
(-0.0232235 0.000289849 3.09359e-23)
(-0.0631965 0.00200729 9.23453e-23)
(-0.0218121 0.0004007 0)
(-0.00467218 0.0444989 1.37124e-24)
(-0.000896657 0.0218554 0)
(-0.0662816 0.000556845 3.28158e-23)
(-0.0230988 -4.21844e-05 1.74289e-23)
(-0.0530852 0.000626123 0)
(-0.0178693 7.18057e-05 0)
(-0.0003375 0.0243715 0)
(-0.00246532 0.0646649 -2.85726e-23)
(-0.0654491 1.95012e-05 3.47816e-23)
(-0.0231822 -0.000334135 -1.86667e-23)
(-0.0514805 0.000228627 0)
(-0.0178205 5.4913e-05 0)
(1.19789e-05 0.023515 1.31575e-23)
(-0.000255576 0.0693828 2.57844e-23)
(-0.00206451 0.0618351 -3.62723e-23)
(-0.000360049 0.021307 -3.75537e-23)
(-0.0666368 -0.000377941 5.8423e-23)
(-0.0207542 -0.00078858 0)
(-0.0134953 -0.000906818 -1.30152e-22)
(-0.00289089 0.000144635 0)
(-0.0476767 -1.00796e-05 -1.0535e-22)
(-0.016385 3.93826e-05 9.85132e-23)
(-0.0221775 0.0478479 6.84314e-23)
(0.000232953 0.0240896 0)
(9.22273e-05 0.0270142 -2.26258e-22)
(0.00338705 0.0616141 2.33087e-22)
(7.28892e-05 0.0665627 2.8125e-23)
(-0.000404875 0.0541268 3.92361e-24)
(-1.25484e-05 0.018224 -3.85123e-24)
(-0.0618382 -0.00233754 -1.04749e-22)
(-0.043424 -0.00489294 1.3195e-22)
(-0.0129307 -0.00284058 0)
(0.000132269 -0.00318377 -2.96209e-22)
(-0.0445723 -0.000254226 3.47285e-22)
(-0.0147599 -3.03409e-05 0)
(-0.106333 0.151624 -1.89255e-22)
(0.809076 0.0279151 -5.05579e-23)
(-0.000653242 0.0695178 -1.63119e-23)
(-0.00598908 0.0782861 0)
(-0.00545316 0.161236 -3.61059e-24)
(-0.000225984 0.0521266 0)
(-4.27211e-05 0.0181113 0)
(-0.00366629 -0.0138739 5.94768e-23)
(-0.00117499 -0.0153303 2.59139e-22)
(-0.0481034 -0.000564213 0)
(-0.0159877 -0.000135329 0)
(0.404498 0.118425 1.42571e-22)
(0.859709 -0.00379534 -1.21544e-23)
(0.000134354 0.0491266 -9.34858e-23)
(-9.82725e-06 0.0170714 8.86144e-23)
(-0.00601371 -0.0481994 0)
(-0.000969555 -0.0239823 0)
(0.545459 0.0124051 1.59477e-22)
(0.879955 -0.00217298 0)
(0.000348299 0.0466487 -8.0588e-23)
(8.9995e-05 0.0159894 7.41603e-23)
(-0.000324566 -0.0263641 6.01278e-23)
(-0.00275547 -0.0697965 -1.85586e-23)
(0.877836 -0.00129247 -1.35248e-23)
(0.617374 0.00189703 -1.17429e-22)
(-0.00237079 0.0503368 0)
(-0.000234494 0.0193 0)
(7.78948e-05 -0.0260109 4.7168e-23)
(-0.000389671 -0.074134 1.90605e-23)
(-0.0016573 -0.0592343 -3.93226e-22)
(-0.00029556 -0.0203539 0)
(0.876412 -0.000319541 1.27772e-23)
(0.62781 -0.000707122 -5.07091e-23)
(0.826367 -0.0268153 0)
(0.000329912 -0.0258217 -9.07859e-23)
(0.87895 0.00140931 0)
(0.884072 0.00206863 0)
(0.86413 0.00376789 0)
(-0.0194587 -0.0487742 0)
(0.00359582 -0.0663858 -4.78057e-22)
(0.000117456 -0.0279971 5.92449e-22)
(0.000288788 -0.0730075 4.35586e-23)
(-0.000493681 -0.051893 0)
(-3.2146e-05 -0.0174923 0)
(0.630566 -0.000735461 -2.0697e-23)
(-0.110875 0.00176764 -4.16273e-23)
(0.445826 -0.114938 9.63968e-22)
(-0.000459407 -0.0743769 -8.89169e-23)
(0.632632 0.00126254 -1.23408e-22)
(0.634542 -0.00123554 2.56618e-22)
(0.563916 -0.0104353 -1.24079e-21)
(-0.108799 -0.152202 -1.80237e-22)
(-0.00677084 -0.172637 6.97816e-22)
(-0.00678107 -0.0812769 -5.66531e-22)
(4.41423e-05 -0.0515501 -3.08807e-23)
(3.12027e-05 -0.0178953 2.9948e-23)
(-0.098825 9.21757e-06 0)
(-0.042372 -7.86482e-05 -4.0249e-23)
(0.000358821 -0.0534104 -1.38191e-22)
(5.66051e-05 -0.0186098 -1.31385e-22)
(-0.10103 -0.000331886 2.36793e-23)
(-0.0355597 -6.11779e-06 0)
(-5.02901e-05 -0.0523227 9.94506e-23)
(8.65054e-05 -0.0182308 -9.48074e-23)
(-0.094292 -0.000140098 -2.46646e-22)
(-0.0368657 -0.000114738 -2.2421e-23)
(-0.0031297 -0.0545072 0)
(-0.000266355 -0.0216188 0)
(-0.0870637 0.000350317 1.34863e-22)
(-0.0342126 -6.80443e-05 0)
(-0.0987073 -0.00152026 0)
(-0.0308445 8.9977e-07 1.20641e-22)
(-0.0366525 -8.42721e-05 0)
(-0.0699499 0.0148917 2.52116e-24)
(-0.0211532 0.0103688 0)
(-0.0558154 0.0307311 0)
(-0.0106084 0.0221602 -1.59412e-24)
(-0.113937 0.0941284 2.47294e-23)
(-0.138092 0.0652778 4.62008e-22)
(-0.0763101 0.120145 3.71818e-23)
(-0.0948807 0.103082 -1.12838e-23)
(-0.136004 0.0552767 -7.77555e-22)
(-0.140286 0.0330463 -2.54736e-23)
(-0.12101 0.0253233 -6.97385e-22)
(-0.107081 0.0252048 -1.90879e-22)
(-0.127006 0.0416116 -6.21125e-22)
(-0.144563 0.0448153 8.11453e-22)
(-0.151571 0.0216337 -5.86027e-22)
(-0.157157 0.0240301 1.05768e-22)
(-0.0982707 0.00589785 1.79725e-22)
(-0.144834 0.00654105 1.21546e-21)
(-0.097452 0.00488294 2.53747e-22)
(-0.120161 0.00256581 3.32719e-22)
(-0.0319341 0.0565383 2.52335e-23)
(-0.0900623 0.0985775 0)
(-0.0622106 0.0589807 -2.08875e-23)
(-0.0881893 0.0794633 0)
(-0.0642242 0.12096 5.68119e-23)
(-0.0660786 0.130089 -1.46298e-22)
(-0.016687 0.0755576 -8.11127e-25)
(-0.0442095 0.145046 2.18835e-22)
(-0.0618509 0.11881 -4.93936e-23)
(-0.0417355 0.139193 2.81398e-22)
(-0.0548328 0.0930523 -7.15221e-23)
(-0.0871229 0.0824935 -2.62707e-23)
(-0.0972157 0.0591439 0)
(-0.085156 0.032082 1.20094e-22)
(-0.0209544 0.00215433 -2.89151e-22)
(-0.0587495 0.0125533 3.33597e-22)
(-0.139838 0.00793864 0)
(-0.155929 0.00836006 0)
(-0.164063 0.00212791 -8.4372e-22)
(-0.10989 0.000683812 -1.53298e-21)
(-0.15844 0.00230899 2.77135e-21)
(-0.0909252 0.0014 6.99085e-22)
(-0.127009 -0.000222073 7.34591e-22)
(-0.0303414 0.1143 -3.00688e-23)
(-0.0386741 0.133156 2.92898e-23)
(-0.0299503 0.155403 -2.35581e-22)
(-0.00566286 0.103603 7.96287e-22)
(-0.0183732 0.159481 1.17036e-22)
(-0.0230249 0.133446 5.00561e-23)
(-0.0131942 0.147642 -2.97306e-22)
(-0.0299118 0.0799748 1.82026e-22)
(-0.0183289 0.117017 -1.14411e-21)
(-0.0127971 0.0578269 0)
(-0.00217475 0.0206742 0)
(-0.148484 -0.000777054 8.67601e-22)
(-0.162854 -2.49277e-05 -2.5871e-21)
(-0.112297 0.000621105 -9.1602e-22)
(-0.155974 0.000138327 2.90206e-21)
(-0.0889343 -3.69444e-05 -1.14598e-21)
(-0.127608 -0.000428386 1.43279e-21)
(-0.00504029 0.143384 -7.12135e-22)
(-0.00614144 0.159134 5.2482e-22)
(0.000936449 0.113018 0)
(-0.00439348 0.140643 0)
(-0.00170843 0.163782 -1.05679e-21)
(-0.00355293 0.0923674 7.79699e-22)
(-0.000396445 0.117933 0)
(-0.148386 0.0016487 8.70645e-22)
(-0.161228 0.000921019 2.01806e-22)
(-0.115491 0.000569645 1.25558e-21)
(-0.155552 -0.00173628 -1.91211e-21)
(-0.160388 -0.00315614 -2.01501e-21)
(-0.0856385 -0.000674198 -2.26213e-21)
(-0.120332 -0.00066359 9.83494e-22)
(0.00308151 0.147161 7.71368e-22)
(0.000821587 0.108268 -8.16826e-22)
(-0.000706946 0.158567 2.56356e-21)
(0.00172068 0.163216 -1.98135e-21)
(-0.00067645 0.0935176 0)
(0.000543471 0.128281 0)
(-0.141296 -0.00578465 -1.44447e-21)
(-0.158034 -0.00812067 0)
(-0.157251 -0.0242883 1.76278e-21)
(-0.100082 -0.00575896 1.04995e-21)
(-0.148141 -0.0310859 -1.96326e-21)
(-0.150114 -0.0289719 -3.24421e-21)
(-0.136313 -0.00661099 1.95967e-21)
(-0.14197 -0.0214099 1.78989e-21)
(-0.0850963 -0.000774939 -2.94631e-22)
(-0.108862 0.000292356 0)
(-0.000156923 0.146797 -4.31238e-22)
(-0.00379445 0.116711 0)
(0.000813495 0.157309 0)
(-0.000234721 0.161595 3.29901e-22)
(-3.31063e-05 0.0881652 0)
(0.00158392 0.126864 0)
(-0.1312 -0.0578969 0)
(-0.141886 -0.0512396 -2.15806e-21)
(-0.14156 -0.0545319 2.91509e-21)
(-0.118903 -0.0771324 0)
(-0.0690054 -0.0141746 0)
(-0.110953 -0.0242112 -1.21117e-21)
(-0.12718 -0.0307647 -2.27339e-21)
(-0.116553 -0.0601102 2.79062e-21)
(-0.127484 -0.0717904 -1.47562e-22)
(-0.0567086 -0.0295 -6.98503e-22)
(-0.0222621 -0.0104177 0)
(-0.0120711 -0.02293 2.14727e-21)
(-0.121306 -0.0296771 7.40799e-22)
(-0.12498 -0.05031 -1.8397e-21)
(-0.0778906 -0.00134745 -1.30917e-21)
(-0.105471 -0.0237973 1.87075e-21)
(-0.104725 -0.0640522 8.62822e-22)
(-0.10758 -0.0784318 0)
(-0.0929038 -0.0908122 1.57141e-21)
(-0.0327527 0.224302 3.18623e-24)
(-0.133442 0.291288 -2.99171e-21)
(-0.142927 0.221209 3.13777e-21)
(0.115883 0.185168 -2.54283e-21)
(-0.0162684 0.15068 1.4456e-21)
(-0.0187069 0.124745 -1.75039e-21)
(-0.0522686 0.191099 -8.93745e-22)
(-0.0174976 0.160102 -3.09401e-21)
(0.000705683 0.154399 -7.97582e-22)
(-0.00782435 0.157879 3.21337e-21)
(0.00106274 0.0839265 0)
(0.0020198 0.118658 2.92949e-22)
(-0.0685611 0.179733 4.24847e-21)
(-0.111215 0.175795 -1.3238e-21)
(-0.0951408 -0.105242 4.14541e-21)
(-0.112585 -0.0918636 2.47089e-21)
(-0.110815 -0.0939282 -3.32252e-21)
(-0.067043 -0.0537072 5.30176e-22)
(-0.0840599 -0.104956 0)
(-0.0886651 -0.0749045 2.47153e-22)
(-0.03327 -0.0552182 -3.0013e-21)
(-0.0751275 -0.124418 -5.83546e-21)
(-0.0196393 -0.0777649 0)
(-0.0620644 -0.125627 2.0492e-21)
(-0.0441197 -0.140842 0)
(-0.0710051 -0.0245766 3.18963e-21)
(-0.0860367 -0.0554149 0)
(-0.053836 -0.0948402 -4.6752e-21)
(-0.077264 -0.0846842 1.13914e-21)
(-0.0156374 -0.00128394 1.37372e-21)
(-0.0457657 -0.00845622 -5.50105e-21)
(-0.115777 0.229039 -5.35805e-22)
(-0.141708 0.189978 0)
(0.0016203 0.189899 1.98434e-21)
(-0.152583 0.0989008 -1.3005e-21)
(0.254205 0.0546768 9.68459e-22)
(-0.0296674 0.157086 2.025e-21)
(-0.0537439 0.156282 -2.2828e-21)
(-0.00911033 0.131145 -1.68517e-21)
(-0.0205997 0.132649 2.90673e-21)
(0.000675583 0.0815843 1.35857e-21)
(-0.00656284 0.104175 -8.97774e-22)
(-0.174792 0.0122838 0)
(-0.121284 0.10975 -1.92747e-21)
(-0.15615 0.0758037 1.07214e-22)
(-0.163443 0.0380245 3.15733e-21)
(-0.0604295 0.118755 -1.2359e-21)
(-0.0960736 0.0972419 1.20413e-21)
(-0.055262 -0.128181 2.24818e-22)
(-0.0552194 -0.141763 5.05099e-22)
(-0.0416947 -0.151105 0)
(-0.032729 -0.111325 -2.83856e-22)
(-0.00753198 -0.11332 1.90028e-23)
(-0.0250846 -0.155752 -3.57824e-21)
(-0.0272366 -0.13652 1.8262e-21)
(-0.0187977 -0.147024 -2.02144e-21)
(-0.0296288 -0.082952 3.19667e-21)
(-0.0216869 -0.117163 -2.64287e-21)
(-0.0111925 -0.0547515 0)
(-0.00194181 -0.0192537 0)
(-0.0726546 0.0524459 -4.58295e-22)
(-0.136801 0.022679 1.65726e-21)
(0.0885189 0.0563709 -6.81562e-22)
(0.360345 0.0167561 1.70046e-21)
(-0.146706 0.0139897 0)
(-0.193112 0.00836065 0)
(-0.0196686 0.101636 -2.10742e-21)
(-0.0391501 0.0967997 0)
(-0.180744 -0.00850678 0)
(-0.178708 -0.00362956 0)
(-0.00716723 0.075846 0)
(-0.00847803 0.0833578 -9.56823e-22)
(-0.137043 -0.00281554 0)
(-0.135931 0.0232337 -3.2005e-21)
(-0.0513885 0.0504922 0)
(-0.0926409 0.0542148 0)
(-0.108331 0.0289106 2.714e-21)
(-0.163923 -0.0138119 5.68694e-22)
(-0.0108401 -0.158295 2.50492e-21)
(-0.0101935 -0.145706 0)
(0.000191043 -0.118718 -4.0104e-23)
(-0.00636067 -0.139876 0)
(-0.00312339 -0.162449 0)
(-0.00400336 -0.090995 -3.49489e-21)
(-0.00241596 -0.116748 3.18789e-21)
(-0.0680794 0.0162691 0)
(0.103321 0.0117995 -1.41036e-21)
(0.359677 0.00267078 0)
(-0.201591 0.00365707 -4.7304e-22)
(-0.177165 0.00888222 1.6048e-23)
(-0.152978 0.00510132 -2.52733e-22)
(-0.187826 0.00590326 1.31453e-22)
(-0.00716541 0.0229704 5.51513e-21)
(-0.0380868 0.0159394 -1.03177e-21)
(-0.0783448 0.0034944 -2.13323e-21)
(-0.0907568 -0.017443 0)
(-0.0924486 -0.0100696 0)
(0.000111704 0.00737154 1.74027e-21)
(-0.00108221 0.0177694 -6.55586e-21)
(-0.0691515 -0.00681194 0)
(0.00173642 -0.152141 -5.427e-22)
(0.000376182 -0.118528 3.97507e-23)
(-0.00178249 -0.156656 -4.61437e-21)
(0.000944597 -0.162689 4.29238e-21)
(-0.00132101 -0.0887767 0)
(0.00026904 -0.125862 -5.33692e-22)
(0.0768797 -0.00235337 0)
(0.347735 -0.00154492 0)
(-0.190112 -0.00153446 4.15262e-22)
(-0.117531 -0.0016975 -3.5658e-22)
(-0.159308 0.000242561 3.35147e-22)
(-0.1993 0.00679089 -5.46675e-22)
(-0.0264082 -0.00106978 0)
(0.127699 -0.184605 -5.74408e-21)
(-0.152097 -0.223352 9.79878e-21)
(-0.000288886 -0.15034 1.66942e-22)
(-0.00324765 -0.120528 0)
(0.000958737 -0.156251 3.94287e-21)
(-0.000345544 -0.161695 -2.87383e-21)
(0.000566122 -0.086333 0)
(0.00218146 -0.130308 -1.02708e-21)
(0.068783 -0.000556336 -3.8137e-23)
(0.341408 -0.0034193 -2.08628e-21)
(-0.211818 -0.0030123 -2.12298e-21)
(-0.126163 -0.000679432 -6.16657e-22)
(-0.162111 0.00164299 5.23446e-22)
(-0.206983 -0.00174647 0)
(0.256656 -0.0509223 -6.94775e-21)
(0.0170866 -0.161798 -6.39299e-21)
(-0.0151764 -0.151525 0)
(-0.020039 -0.12819 0)
(0.110011 -0.00783823 -3.05605e-21)
(0.368174 -0.0149313 2.59779e-21)
(0.112003 -0.0555401 1.15604e-20)
(-0.0583098 -0.194351 0)
(-0.122613 -0.210302 9.16793e-21)
(-0.0376302 -0.238592 1.59714e-21)
(-0.152744 -0.296889 -2.58783e-21)
(-0.07162 -0.174555 -7.86651e-24)
(-0.0156587 -0.159617 -3.83357e-21)
(0.000287359 -0.155396 1.64762e-21)
(-0.00649279 -0.157581 6.06657e-21)
(0.00111527 -0.0948134 -3.63958e-21)
(0.000320587 -0.127946 2.3633e-21)
(-0.0714822 -0.0134938 2.44171e-21)
(-0.191847 0.00243054 3.70008e-21)
(-0.187884 -0.00596949 -3.35404e-21)
(-0.153586 8.22923e-05 2.46606e-22)
(-0.18941 -7.40567e-05 0)
(-0.0815875 -0.0598866 -3.83598e-21)
(-0.161376 -0.161392 -2.61981e-21)
(-0.0484462 -0.153133 -6.3755e-21)
(-0.0291085 -0.1541 7.54547e-22)
(-0.149217 -0.0123836 0)
(-0.136725 -0.0229694 -9.92963e-22)
(-0.142881 -0.158418 -6.72704e-21)
(-0.0975662 -0.159655 8.67295e-21)
(-0.0815367 -0.11247 6.37606e-21)
(-0.056965 -0.120095 0)
(-0.00819095 -0.125308 0)
(-0.0194375 -0.128123 -2.50856e-21)
(-0.00129862 -0.0885078 0)
(-0.00764689 -0.107211 0)
(-0.204887 0.000591743 2.79999e-21)
(-0.196579 -0.00302216 -5.40372e-21)
(-0.145995 0.00224102 -2.59743e-22)
(-0.18196 -0.00296055 -1.5835e-21)
(-0.173046 -0.0112362 5.14517e-21)
(-0.161917 -0.0612269 -4.4463e-21)
(-0.021746 -0.100318 1.50669e-21)
(-0.0395345 -0.0982811 3.61648e-21)
(-0.189753 0.00799033 4.42898e-21)
(-0.171445 0.00861297 -1.78237e-22)
(-0.0503352 -0.0508868 -7.98424e-21)
(-0.0858889 -0.0636405 3.84239e-22)
(-0.12058 -0.0497811 1.4158e-21)
(-0.00763689 -0.0742615 0)
(-0.0105909 -0.0809602 -2.7495e-21)
(-0.146469 -0.00435045 -2.14219e-21)
(-0.170818 0.0105105 1.51541e-21)
(-0.0961559 0.0195054 1.41858e-21)
(-0.00966844 -0.0198456 0)
(-0.0398034 -0.0113746 3.55018e-21)
(-0.113128 0.0170006 1.59815e-22)
(-0.102801 -0.000558429 0)
(-7.18873e-05 -0.00765005 0)
(-0.00237199 -0.0173278 0)
(-0.0663444 0.00772811 -3.71805e-21)
(-0.0242896 0.0013009 2.92624e-21)
)
;

boundaryField
{
    movingWall
    {
        type            fixedValue;
        value           uniform (1 0 0);
    }
    fixedWalls
    {
        type            noSlip;
    }
    frontAndBack
    {
        type            empty;
    }
    defaultFaces
    {
        type            empty;
    }
}


// ************************************************************************* //
