/*--------------------------------*- C++ -*----------------------------------*\
  =========                 |
  \\      /  F ield         | OpenFOAM: The Open Source CFD Toolbox
   \\    /   O peration     | Website:  https://openfoam.org
    \\  /    A nd           | Version:  8
     \\/     M anipulation  |
\*---------------------------------------------------------------------------*/
FoamFile
{
    version     2.0;
    format      ascii;
    class       volScalarField;
    location    "0.053";
    object      p;
}
// * * * * * * * * * * * * * * * * * * * * * * * * * * * * * * * * * * * * * //

dimensions      [0 2 -2 0 0 0 0];

internalField   nonuniform List<scalar> 
656
(
8.52063e-07
-0.235414
1.72857
-0.786697
0.18911
1.73121
-1.15106
-1.55284
2.05493
1.70644
1.76609
-0.438533
0.38613
1.74769
2.03444
2.25911
1.63661
1.58733
2.26838
2.39131
1.80215
1.82122
1.78645
1.81793
-0.0678215
0.616182
1.77436
2.0172
2.25036
1.84386
1.86666
2.5567
2.39627
2.38631
2.55442
2.69006
2.15661
2.1727
2.1373
1.78228
1.85337
0.280478
0.818514
1.80942
2.00686
2.2433
2.18694
2.1995
2.86047
2.69088
2.55895
2.38205
2.55203
2.68881
2.86096
3.02769
2.16156
2.17594
2.1875
2.12045
2.14589
1.82906
2.00071
2.23598
2.19777
2.20659
3.02652
2.85855
2.69136
3.34513
2.37746
2.54909
2.68644
2.85984
3.02755
2.18283
2.1929
2.19472
2.19423
1.98955
2.22561
2.19353
2.19298
3.61256
3.34083
3.02273
2.85618
3.34566
3.56257
4.81672
2.36917
2.5466
2.68245
2.8601
3.02889
2.09336
2.08883
2.09016
2.09233
2.09421
2.09557
5.39496
5.07767
3.6537
3.32863
3.01739
3.35179
3.52793
4.58598
5.00428
2.11821
2.10197
2.09365
2.08731
2.08118
2.07574
3.46393
5.83362
5.30391
3.68505
3.31196
3.3981
2.13854
2.1262
2.11504
2.10578
2.09759
2.09041
3.53792
3.54919
6.25265
5.51777
3.70246
3.53241
2.22657
2.21193
2.19936
2.18902
2.17992
2.17201
3.18941
3.54078
3.65144
6.69744
5.7733
3.19323
2.32652
2.314
2.30195
2.29165
2.28277
2.27529
3.12272
3.18758
3.53832
3.76314
7.19327
3.13352
3.07493
2.40803
2.40867
2.40246
2.39116
2.37959
2.36984
3.06634
3.11271
3.18558
3.52847
3.85136
3.07018
2.4717
2.50137
2.49472
2.47787
3.06523
3.05755
3.10343
3.18144
3.51421
3.07084
3.18795
2.31828
2.30625
3.08445
3.0682
3.05929
3.05011
3.09351
3.17537
3.15768
3.19241
3.21498
3.09288
3.08365
3.0649
3.05441
3.04309
3.08401
3.13673
3.15933
3.19695
3.21619
3.3393
3.09799
3.09262
3.08253
3.06253
3.0501
3.03676
3.1236
3.13674
3.15996
3.20006
3.22841
3.3863
3.10052
3.09835
3.0928
3.08205
3.06065
3.04636
3.11582
3.12311
3.13634
3.15981
3.2019
3.23925
3.09865
3.10076
3.09876
3.09308
3.08184
3.05907
3.11145
3.11507
3.12237
3.1356
3.1594
3.20279
3.10097
3.09836
3.10093
3.09921
3.09349
3.0817
3.11414
3.11108
3.1143
3.1216
3.13479
3.15901
3.10345
3.10069
3.09826
3.10103
3.09964
3.09386
3.10742
3.11032
3.11445
3.11078
3.11363
3.12083
3.13414
3.1033
3.10041
3.09822
3.1011
3.10006
3.10751
3.11068
3.11459
3.11062
3.11302
3.12022
3.10315
3.10015
3.09821
3.10116
3.1076
3.11102
3.11465
3.11052
3.11246
3.10303
3.09991
3.0982
3.10767
3.11132
3.11467
3.11044
3.10291
3.0997
3.10774
3.1116
3.1147
3.1028
3.1078
3.11186
0.61188
0.921021
2.12098
2.05037
1.83007
1.80107
1.8326
1.36905
1.47457
1.26355
1.80879
1.85006
2.14489
2.14378
2.16553
2.16167
2.10582
2.08045
2.01324
1.95881
1.74482
1.56627
1.91246
1.84329
1.99334
1.99094
1.8817
2.10625
2.10804
2.14111
2.15635
2.16336
2.12644
2.08131
2.09211
2.00126
1.94345
2.13242
2.22593
2.11437
2.3621
2.27292
2.13655
2.07574
4.46965
4.70427
3.32651
2.54993
2.45662
3.1737
3.02245
2.68289
2.64622
2.96532
2.86564
2.80938
2.14198
2.11402
2.1293
2.17216
2.2255
2.218
2.20882
2.20971
2.26277
2.16369
2.45113
2.39417
2.28209
2.29799
3.96853
3.53526
3.45036
3.98479
3.79625
3.42533
3.28027
3.31021
3.16923
2.62065
2.52754
3.08329
2.97623
2.8885
2.81531
2.74309
2.14581
2.16439
2.19162
2.25006
2.27633
2.34418
2.36895
2.56634
2.41782
2.3647
2.65337
2.48421
2.42312
3.66966
3.53958
3.48918
3.52739
3.4478
3.36973
3.22776
3.17443
3.05155
2.96061
2.87893
2.73945
2.70068
2.23602
2.25194
2.27611
2.36681
2.38545
2.43653
2.4745
2.58783
2.53975
2.80869
2.73305
2.59638
2.54074
3.18409
3.31867
3.32919
3.35979
3.27929
3.20682
3.11492
3.03152
2.8918
2.97773
2.9124
2.33713
2.55195
2.37834
2.39094
2.43949
2.45257
2.5176
2.85233
2.69188
2.73495
2.88266
2.59717
2.70594
2.68004
2.88293
3.1281
3.15303
3.00082
2.96644
3.08536
3.0309
3.19329
3.24018
3.21772
3.00976
2.98406
3.17399
3.02785
3.04249
2.42709
2.61984
2.53589
2.59456
2.47616
2.47922
2.51145
2.74695
2.8151
2.86866
2.92061
2.67843
2.75349
2.70919
2.91805
2.9793
3.03644
3.03237
3.09721
3.14414
3.1244
3.06816
3.06555
3.07238
3.06007
3.08185
3.12744
3.05149
3.07584
3.03789
3.07602
3.07689
3.09106
3.07342
3.0666
3.07123
2.56024
2.45363
2.52513
2.63841
2.65772
2.53188
2.54451
2.63114
2.9443
2.79796
2.83869
2.67736
2.79832
2.98255
2.96402
3.04139
3.0702
3.09706
3.14018
3.14473
3.20256
3.2267
3.22713
3.19747
3.16917
3.18939
3.14295
3.2029
3.18207
3.18528
3.14417
3.11834
3.10748
3.057
3.09837
3.10042
3.12576
3.09688
3.07067
3.06114
3.06653
3.06342
3.06721
3.09314
3.23841
2.45014
2.33526
2.41733
2.56431
2.59335
2.67045
2.84056
2.82927
2.86799
3.11037
3.00032
3.00879
3.27038
3.16349
3.14102
3.30475
3.27892
3.36756
3.16533
3.13402
3.16537
3.15369
3.15714
3.08086
3.08247
3.1322
3.10806
3.11367
3.0888
3.06206
3.09257
3.09854
3.0873
3.09073
3.1022
3.37882
3.18456
3.06701
3.02382
3.02725
2.98073
2.77783
3.02498
3.32089
3.09141
3.09107
3.14612
3.13219
3.1388
3.12831
3.13761
3.09341
3.0913
3.12679
3.11493
3.10221
3.09166
3.10293
3.08919
3.54171
3.09768
3.0976
3.09739
3.09843
3.09946
3.10032
3.12703
3.11427
3.12556
3.12339
3.12466
3.09818
3.10533
3.10039
3.11325
3.11546
3.09933
3.10179
3.10017
3.10044
3.0994
3.10022
3.11766
3.11468
3.1161
3.11652
3.11612
3.10229
3.10471
3.10808
3.10964
3.11277
3.11166
3.10181
3.10296
3.10114
3.10173
3.11229
3.11218
3.11033
3.10527
3.10958
3.10712
3.11334
3.11201
3.10359
3.1051
3.10728
3.10984
3.10947
)
;

boundaryField
{
    movingWall
    {
        type            zeroGradient;
    }
    fixedWalls
    {
        type            zeroGradient;
    }
    frontAndBack
    {
        type            empty;
    }
    defaultFaces
    {
        type            empty;
    }
}


// ************************************************************************* //
