/*--------------------------------*- C++ -*----------------------------------*\
  =========                 |
  \\      /  F ield         | OpenFOAM: The Open Source CFD Toolbox
   \\    /   O peration     | Website:  https://openfoam.org
    \\  /    A nd           | Version:  8
     \\/     M anipulation  |
\*---------------------------------------------------------------------------*/
FoamFile
{
    version     2.0;
    format      ascii;
    class       surfaceScalarField;
    location    "0.053";
    object      phi;
}
// * * * * * * * * * * * * * * * * * * * * * * * * * * * * * * * * * * * * * //

dimensions      [0 3 -1 0 0 0 0];

internalField   nonuniform List<scalar> 
662
(
-2.03046e-05
1.61401e-05
4.1647e-06
2.07741e-05
-4.10787e-05
-8.80687e-05
3.59186e-05
6.82902e-05
-1.73794e-05
2.15441e-05
-0.000152148
8.48535e-05
1.04161e-05
-5.14949e-05
9.37449e-05
-7.52057e-05
-2.26053e-05
4.41494e-05
-0.000180987
3.92547e-05
1.72355e-06
-5.32184e-05
2.20229e-06
-0.000121829
-4.69333e-06
0.00012432
-3.42309e-05
3.64332e-05
0.000164406
-9.32668e-05
5.5968e-05
-1.18186e-05
-0.000183961
4.69815e-06
-7.67027e-07
-5.24514e-05
1.15384e-06
-0.000116974
-6.0089e-06
-3.3077e-05
5.76887e-05
-1.72071e-06
0.000196121
-4.35331e-05
-0.000181971
-2.75684e-06
-2.22604e-06
-5.02253e-05
3.65785e-06
-0.000103343
-1.72891e-05
-2.94191e-05
5.74303e-05
2.58419e-07
0.000198814
-4.414e-06
-1.52426e-06
0.000123304
-0.000123508
1.72855e-06
3.45801e-05
-3.61044e-05
-0.00017754
-6.65781e-06
-4.1064e-05
-9.16137e-06
-2.19029e-05
-1.91611e-05
-1.71608e-05
-4.74207e-06
4.83338e-06
-8.81166e-05
-2.00596e-05
-2.45858e-05
-0.000141474
-0.000756504
0.000897977
6.07017e-05
-3.27139e-06
8.98244e-05
-2.91228e-05
-5.16494e-05
0.000199528
-4.55725e-07
-4.22537e-07
0.000120535
3.19176e-06
3.41575e-05
-0.000153261
-3.34404e-05
-9.62819e-05
-7.61399e-05
-4.39732e-05
-6.94696e-05
2.21479e-05
-2.689e-05
3.45551e-06
-7.68002e-05
-1.47719e-05
-2.11303e-05
-0.000390645
0.00070537
-0.00107123
-0.000953902
0.00185188
0.000216981
-2.07245e-05
0.000293672
-0.000105814
-0.000148622
-3.58934e-06
0.000106905
1.72191e-05
3.05682e-05
-0.000116396
9.45707e-05
2.72785e-05
-5.41684e-05
-2.7732e-07
-3.90866e-07
-7.6132e-05
-2.14076e-05
0.0013549
-0.00160343
-0.000107475
0.00195935
-4.16385e-06
9.28453e-05
1.82234e-05
2.64043e-05
-0.000197942
0.000108824
-6.59201e-05
1.17516e-05
0.00161597
-0.000368545
0.00199294
-3.35849e-05
-2.8549e-06
8.01061e-05
1.55941e-05
2.35494e-05
-6.82421e-05
2.32197e-06
-0.00022876
4.25697e-05
0.00199103
1.90906e-06
0.00171134
-0.00012896
-5.42505e-06
2.9639e-05
5.58922e-05
1.81244e-05
-6.76682e-05
-5.73888e-07
-0.000232929
6.49135e-06
-1.69483e-08
-0.000112345
0.000108909
3.45325e-06
-3.15568e-05
3.15399e-05
0.00196111
2.99161e-05
0.00173155
-1.82969e-05
-0.00180572
0.00095013
0.000855591
-6.82287e-05
5.60576e-07
0.00191697
4.41431e-05
0.00187817
3.8796e-05
7.24545e-05
0.000156758
0.000793372
9.93763e-05
5.73812e-05
3.11476e-05
-0.00023365
1.46392e-07
-4.1222e-07
-0.000113087
1.15428e-06
-3.1969e-05
0.00171196
4.95013e-05
-0.000172013
-7.87466e-06
4.15488e-05
0.000138339
-0.00136392
0.000783624
0.00143588
-0.000244691
1.16025e-05
0.00167144
8.46632e-05
0.00158406
0.000126178
0.000292599
0.000416256
0.00116074
0.000321874
0.000151763
0.00010833
-8.56665e-08
-0.00011199
-1.0112e-06
-3.20547e-05
-0.000179515
-1.51404e-06
9.01526e-06
-5.3296e-05
4.54213e-05
4.77546e-07
-0.000109885
-2.58308e-06
-3.15771e-05
-0.000164384
4.63804e-06
-1.97683e-05
-5.481e-05
1.66056e-06
-9.97045e-05
-1.18406e-05
-2.99166e-05
-0.000142537
7.19401e-06
-2.90409e-05
-5.01719e-05
7.86534e-06
-4.25106e-05
-6.50593e-05
-2.20513e-05
-0.000127578
4.22716e-06
-1.91869e-05
-4.29778e-05
3.91918e-06
-2.01374e-05
-0.000111359
-3.87506e-05
-3.48314e-05
0.000501559
-0.000416705
-0.000139682
0.000207972
0.000361877
0.000132766
-0.000956984
0.000520129
0.000436854
-0.000538294
-0.00041869
-0.00066731
0.000371458
0.000295853
-0.000147181
-0.000749715
0.000211421
-0.000121614
-0.000628101
-0.000367628
0.000246014
0.000210638
-0.000627343
-0.000643629
0.000854267
-0.00106232
4.158e-05
-0.000669681
-0.00102074
-0.000588089
-0.000100938
-0.000568743
-0.000372321
-0.000473259
-0.000415679
0.000548445
-0.000800465
0.00123732
-5.38019e-05
0.000115749
0.00112157
0.000487207
0.000455178
9.91987e-05
0.000388008
0.000422936
-0.000127083
0.000522135
-0.000471007
0.000343924
-0.000618188
-0.000406767
-0.000160753
3.64332e-05
0.000213522
-0.000801611
-0.000807217
-0.00137596
-0.000796913
-5.81818e-05
-0.00131778
-0.000479268
-0.000537449
-0.000241535
0.000696713
0.000880035
0.00126804
0.00065318
0.000241734
0.00102631
0.000404786
0.000117349
0.00064652
0.000184312
0.000159613
0.00030166
3.61044e-05
0.000121021
-0.000917933
-0.00119676
-0.00092069
2.97196e-05
-0.00122648
-0.000554739
-0.000525019
-0.000169647
0.000822826
0.000856663
0.000818412
0.000441911
0.00020461
0.00129857
0.000303389
0.000507999
1.38699e-05
-0.00093456
-0.00121261
-0.000941218
-0.00127424
6.16296e-05
-0.00083194
-0.000442296
-0.000545079
-0.000483449
0.000781509
3.69035e-05
0.000781053
0.00131129
-1.27192e-05
0.0013482
0.00051119
0.000498471
-0.000330059
-0.000611159
-0.001162
-0.000947438
-0.000214562
-0.000644599
-0.000391558
-0.00055588
0.00039721
-0.000611771
-0.000699845
0.000257549
-0.000302635
-0.000498221
-0.000240672
0.000919573
-0.00013852
0.000898849
0.00142382
-7.56192e-05
0.0012853
0.00051569
0.000440071
0.00030871
-0.00046
0.00015129
-0.000303062
-0.00069462
-0.000135424
-0.000324576
0.000352679
-0.000428819
-0.00029192
-0.0008478
6.11032e-05
-0.000908903
-0.000633516
-0.000127625
-0.000301194
-0.000197095
-0.000102524
-0.000392769
9.01334e-05
-0.000241479
-0.000241063
-0.00015093
-0.000160654
-8.08249e-05
-0.000296078
-0.000134269
-0.000161809
0.00144123
-0.00158986
0.00200576
-0.000564527
0.000934534
-0.000668895
0.000856349
4.25001e-05
0.000750535
-0.000839321
-0.000832467
0.000874968
0.00135224
-6.69421e-05
0.00051977
0.000458294
0.000391352
0.000558765
-0.00139809
0.001393
-0.000834232
0.000495239
-0.000629508
-0.000170663
-0.000462853
0.000100442
-0.000401636
0.000808461
-0.00127131
-0.00050416
-0.000438433
-0.000191075
-0.000395336
-0.00053188
9.34477e-05
2.38962e-05
-0.000555776
-0.00024847
9.75396e-05
-0.000329294
0.000491104
-0.000397656
-2.14076e-05
-0.0022438
0.00167927
-0.000850799
0.00101037
-0.000739836
-0.000110963
0.000641828
0.00124695
-0.000371983
-0.000151137
0.000656579
-0.000136809
0.000284596
0.000406946
0.000270138
0.000516776
-1.83701e-05
-0.000498406
-8.52312e-05
-0.000749
-0.000825067
-0.000308291
0.00030667
-0.000457807
-0.00044233
-0.000866583
-0.000404731
-0.00105766
-0.00103376
-0.000800067
-0.000757497
-8.53845e-05
-0.000948377
-0.000499318
-5.64583e-05
-0.000584703
-0.000257208
-0.000140448
-0.000313666
-3.15399e-05
-0.000728649
0.000617686
-0.000747019
0.00125951
0.00113055
-0.000290346
-0.000456673
0.000485635
-0.000775981
0.000492105
-0.000207509
3.42983e-05
0.000730539
-0.000244904
0.000232133
0.000299777
9.22672e-05
0.000340031
-0.000107898
3.17403e-05
0.000227126
-0.000192827
-0.000215204
-0.000183464
-0.000379049
0.000134145
-0.000122279
-0.000826098
-0.000879776
-0.000873285
-0.000443448
-0.000141255
-0.00126955
-0.000310213
-0.000451468
0.000184604
-0.000641277
0.00131516
0.00129686
-0.000438931
-0.00033705
-0.00108021
-0.000337501
-0.000674551
0.000166284
-7.40166e-05
-2.65436e-05
-0.000210008
0.000317906
-0.000183761
1.81244e-05
-4.54213e-05
-0.000928847
5.55626e-05
-0.000928701
-0.00123018
-3.93648e-05
-0.00117462
-0.000450313
-0.000489678
0.00128138
1.54802e-05
0.00133088
-0.00101742
-6.27841e-05
-0.00100194
-0.000665536
-0.00072832
0.00117272
0.000263162
0.00233346
-0.0009155
-1.32011e-05
-0.000903898
-0.00102741
-0.000147203
-0.00104062
-0.000490689
-0.000637893
0.00132554
5.34437e-06
0.0014102
-0.00113304
0.000131094
-0.00112769
-0.000748088
-0.000616994
0.00113888
-0.000846281
0.00140204
-0.000898969
-4.92821e-06
-0.00079064
0.00126313
0.000147075
0.0013893
0.000543023
-0.00181133
0.00102069
-0.000673893
0.00207593
-0.00165957
0.00110474
-8.40474e-05
0.000866155
-0.000871083
-0.00124756
0.000206945
-0.000381406
-0.000640476
-0.000433531
0.000630401
-0.000483325
-0.00120488
7.7192e-05
-0.000574484
-0.000646035
-0.000568843
-0.000299495
0.000842517
0.00177644
0.00116787
-6.31341e-05
0.000296791
-0.000838794
0.000355468
3.72375e-06
0.000782869
0.000993571
0.000698822
0.000444087
0.000254735
0.000380953
-0.000646731
0.000265325
-0.00034994
-0.000445371
-0.000180046
-0.000771645
0.000197161
-0.000416176
-0.00058803
-0.00039087
-0.000590575
0.000594299
0.000402995
-0.000491575
0.000141635
-0.000110622
-0.000633327
0.00021715
-3.90276e-05
-0.000310945
0.000200323
-5.62105e-05
0.000346785
-0.000222557
-8.09222e-05
-0.000411007
-0.000193856
-0.000340047
0.000146191
-0.000168033
8.71105e-05
3.22903e-05
-0.000379075
-2.20513e-05
3.48314e-05
)
;

boundaryField
{
    movingWall
    {
        type            calculated;
        value           uniform 0;
    }
    fixedWalls
    {
        type            calculated;
        value           uniform 0;
    }
    frontAndBack
    {
        type            empty;
        value           nonuniform List<scalar> 0();
    }
    defaultFaces
    {
        type            empty;
        value           nonuniform List<scalar> 0();
    }
}


// ************************************************************************* //
