/*--------------------------------*- C++ -*----------------------------------*\
  =========                 |
  \\      /  F ield         | OpenFOAM: The Open Source CFD Toolbox
   \\    /   O peration     | Website:  https://openfoam.org
    \\  /    A nd           | Version:  8
     \\/     M anipulation  |
\*---------------------------------------------------------------------------*/
FoamFile
{
    version     2.0;
    format      ascii;
    class       volScalarField;
    location    "0.022";
    object      p;
}
// * * * * * * * * * * * * * * * * * * * * * * * * * * * * * * * * * * * * * //

dimensions      [0 2 -2 0 0 0 0];

internalField   nonuniform List<scalar> 
656
(
1.20694e-07
-0.235356
1.72624
-0.784638
0.189022
1.72902
-1.14912
-1.55097
2.05082
1.71039
1.76999
-0.436286
0.385943
1.74565
2.03067
2.25603
1.64053
1.59128
2.26484
2.39116
1.80717
1.82624
1.79147
1.82186
-0.0653326
0.615987
1.77249
2.01381
2.24782
1.84889
1.87172
2.56129
2.39566
2.38672
2.55942
2.70035
2.16217
2.17822
2.14292
1.7873
1.85719
0.283029
0.818476
1.80789
2.00393
2.2414
2.19241
2.20492
2.87567
2.70107
2.5632
2.3831
2.55749
2.69924
2.87593
3.04522
2.16847
2.18284
2.19439
2.12616
2.15296
1.82825
1.99841
2.23491
2.20465
2.21345
3.04453
2.87398
2.70148
3.36304
2.37934
2.55514
2.69707
2.87459
3.04453
2.19117
2.20127
2.20324
2.20286
1.98806
2.22536
2.20221
2.20172
3.62578
3.35917
3.04121
2.87181
3.36304
3.57544
4.82974
2.37205
2.55341
2.69327
2.87459
3.04525
2.10326
2.0987
2.09988
2.10192
2.10368
2.10496
5.40057
5.0906
3.66721
3.34737
3.03629
3.36868
3.53965
4.59853
5.01052
2.13018
2.11422
2.10589
2.09949
2.09331
2.08785
3.47043
5.83925
5.31667
3.69886
3.33109
3.40576
2.15348
2.14143
2.13045
2.12128
2.11317
2.10605
3.5448
3.55546
6.25844
5.53042
3.71653
3.53979
2.24387
2.22967
2.21746
2.20735
2.19844
2.19074
3.19796
3.54748
3.65678
6.70335
5.78587
3.20163
2.34508
2.33327
2.32175
2.31185
2.30331
2.29612
3.13294
3.19637
3.54478
3.76865
7.1992
3.143
3.08436
2.42784
2.42873
2.42312
2.41253
2.40162
2.3924
3.07661
3.12351
3.19445
3.53465
3.85651
3.07815
2.49271
2.52112
2.51536
2.49979
3.07377
3.06851
3.11466
3.19032
3.52012
3.0768
3.17874
2.35325
2.34309
3.08796
3.07439
3.06834
3.06161
3.10512
3.18426
3.15157
3.18268
3.20228
3.0944
3.08711
3.07135
3.06386
3.05509
3.09595
3.13417
3.15328
3.18678
3.20323
3.31642
3.09918
3.09414
3.08599
3.06916
3.05992
3.04919
3.12291
3.13434
3.15392
3.18964
3.21437
3.35985
3.1013
3.09935
3.09402
3.08544
3.06741
3.05648
3.11608
3.12241
3.13407
3.15382
3.19135
3.2243
3.10038
3.10143
3.09963
3.09426
3.08515
3.06593
3.11217
3.11554
3.12182
3.13349
3.1535
3.19217
3.1023
3.10016
3.10157
3.09996
3.09454
3.08493
3.11378
3.11188
3.11495
3.12123
3.13285
3.15319
3.10456
3.10211
3.10004
3.10167
3.10029
3.09476
3.10787
3.11049
3.11403
3.11162
3.11442
3.12065
3.13233
3.10445
3.1019
3.09998
3.10175
3.10062
3.10794
3.11074
3.11418
3.11145
3.11394
3.12017
3.10434
3.10171
3.09995
3.10182
3.10801
3.111
3.11426
3.11135
3.1135
3.10424
3.10153
3.09993
3.10806
3.11124
3.1143
3.11126
3.10416
3.10137
3.1081
3.11145
3.11433
3.10408
3.10814
3.11164
0.613877
0.920839
2.12687
2.05545
1.83501
1.80594
1.83579
1.37201
1.47555
1.26351
1.80803
1.85454
2.15237
2.15034
2.17415
2.16937
2.11394
2.0875
2.01879
1.96346
1.74756
1.56764
1.91349
1.84258
1.99203
1.99484
1.88687
2.11612
2.11834
2.14999
2.16389
2.17236
2.13431
2.09007
2.09899
2.00418
1.94597
2.13445
2.22549
2.1134
2.36534
2.27478
2.14278
2.08266
4.48088
4.71166
3.34395
2.55741
2.46011
3.19168
3.03899
2.69361
2.65597
2.98244
2.88008
2.82351
2.15356
2.12669
2.141
2.185
2.23604
2.22987
2.2187
2.21397
2.26959
2.16895
2.45598
2.39822
2.29177
2.30742
3.98058
3.54508
3.4638
3.9933
3.80745
3.435
3.28932
3.32551
3.18444
2.63382
2.5383
3.09831
2.99146
2.9031
2.82941
2.75561
2.16075
2.17992
2.20508
2.26463
2.28899
2.35807
2.37993
2.57452
2.42751
2.37382
2.66316
2.49389
2.43542
3.67864
3.54883
3.49788
3.53439
3.458
3.38108
3.24202
3.18528
3.06782
2.97547
2.89363
2.75455
2.71391
2.2532
2.2696
2.29211
2.3831
2.39971
2.4512
2.48612
2.60238
2.5535
2.81868
2.7445
2.60744
2.55401
3.19358
3.32672
3.33897
3.36961
3.29094
3.21435
3.12589
3.04658
2.9015
2.99211
2.92299
2.35521
2.56512
2.39743
2.40866
2.45703
2.46787
2.53266
2.86114
2.70249
2.74528
2.89029
2.60905
2.71733
2.6921
2.88814
3.13761
3.16189
3.0023
2.9688
3.08178
3.03057
3.20024
3.24827
3.22459
3.01278
2.98875
3.18216
3.03594
3.04876
2.44612
2.63332
2.55184
2.60853
2.49505
2.49682
2.52924
2.75577
2.82338
2.87482
2.92437
2.69076
2.76263
2.71962
2.92198
2.98051
3.03489
3.03091
3.09184
3.1368
3.11796
3.06638
3.06486
3.08159
3.07212
3.09145
3.13755
3.05253
3.07509
3.03998
3.08427
3.07977
3.09949
3.07912
3.07445
3.08018
2.57699
2.47642
2.54411
2.65273
2.67108
2.5514
2.56253
2.64598
2.9462
2.8059
2.84538
2.69049
2.8068
2.98282
2.96515
3.03753
3.06564
3.09086
3.13169
3.13622
3.19042
3.2127
3.21308
3.18584
3.15921
3.1788
3.13594
3.19116
3.17239
3.17622
3.13774
3.11419
3.10508
3.05802
3.10332
3.10767
3.13193
3.09689
3.07751
3.06551
3.07286
3.07058
3.07365
3.09806
3.22374
2.47736
2.37013
2.44778
2.58622
2.61298
2.68537
2.84719
2.83556
2.87227
3.10293
2.99855
3.00693
3.25228
3.15265
3.13176
3.28445
3.25997
3.34249
3.1576
3.12911
3.15865
3.14785
3.15064
3.08499
3.08632
3.12799
3.10592
3.11203
3.08958
3.06836
3.09546
3.10006
3.09062
3.09408
3.10399
3.35305
3.17302
3.06213
3.02076
3.02398
2.9801
2.7938
3.02387
3.3002
3.09301
3.09289
3.14061
3.12843
3.13606
3.12691
3.13456
3.09536
3.09421
3.12436
3.11376
3.10277
3.09453
3.10454
3.09121
3.50557
3.09895
3.09887
3.09866
3.09969
3.10047
3.10115
3.12532
3.1139
3.12433
3.12173
3.12348
3.0992
3.10614
3.10149
3.11286
3.1151
3.10083
3.10414
3.10126
3.10184
3.10082
3.10162
3.11744
3.11463
3.11627
3.11669
3.116
3.10267
3.10582
3.10955
3.10911
3.11325
3.11234
3.10268
3.10376
3.10231
3.10295
3.11254
3.11265
3.11091
3.10609
3.1099
3.10776
3.11322
3.11202
3.10464
3.10599
3.10782
3.11026
3.10962
)
;

boundaryField
{
    movingWall
    {
        type            zeroGradient;
    }
    fixedWalls
    {
        type            zeroGradient;
    }
    frontAndBack
    {
        type            empty;
    }
    defaultFaces
    {
        type            empty;
    }
}


// ************************************************************************* //
