/*--------------------------------*- C++ -*----------------------------------*\
  =========                 |
  \\      /  F ield         | OpenFOAM: The Open Source CFD Toolbox
   \\    /   O peration     | Website:  https://openfoam.org
    \\  /    A nd           | Version:  8
     \\/     M anipulation  |
\*---------------------------------------------------------------------------*/
FoamFile
{
    version     2.0;
    format      ascii;
    class       volVectorField;
    location    "0.022";
    object      U;
}
// * * * * * * * * * * * * * * * * * * * * * * * * * * * * * * * * * * * * * //

dimensions      [0 1 -1 0 0 0 0];

internalField   nonuniform List<vector> 
656
(
(0.743389 0.056533 -9.65649e-25)
(0.927897 0.0140722 1.8662e-24)
(0.954739 -0.00127228 0)
(-0.0910785 0.119005 2.39516e-23)
(0.556749 0.0977119 1.12045e-23)
(0.841047 0.0009294 0)
(-0.0571773 0.0672454 -4.94578e-23)
(-0.0145936 0.0188539 9.83738e-24)
(0.96806 -0.000152937 0)
(-0.00051995 0.138422 -2.38372e-24)
(-0.00308848 0.192822 -7.85476e-23)
(-0.117754 0.17203 0)
(0.375977 0.139788 1.00498e-23)
(0.714629 0.00925366 0)
(0.890401 0.00125105 -1.70358e-22)
(0.905432 0.000549755 4.77543e-23)
(0.00103651 0.0822564 9.82682e-24)
(0.00137469 0.0266992 0)
(0.97151 -8.21587e-05 -3.43033e-23)
(0.911951 0.000262541 -1.43705e-22)
(-0.0124015 0.0923355 7.73048e-23)
(-0.00523952 0.0625363 0)
(-0.0239479 0.124317 1.33728e-24)
(-0.00797995 0.242049 1.54566e-22)
(-0.136151 0.223336 -1.68183e-22)
(0.210237 0.180302 -2.26499e-23)
(0.577028 0.024445 0)
(0.799603 0.00628719 2.66002e-22)
(0.827428 0.00292051 -8.90348e-23)
(-0.00144372 0.035487 0)
(-0.000151589 0.0113917 0)
(0.914767 0.000132042 5.14419e-23)
(0.972842 -5.42933e-05 -3.66785e-23)
(0.839879 0.00150269 1.95817e-22)
(0.845444 0.000725603 -5.1905e-23)
(0.849632 4.10951e-05 -1.09311e-22)
(-0.00674899 0.0604218 -1.05686e-22)
(-0.00279478 0.0406345 1.71151e-23)
(-0.0137294 0.0818076 -1.88882e-22)
(-0.0408942 0.157431 -1.58086e-22)
(-0.0168736 0.282069 1.66909e-22)
(-0.143824 0.269305 -4.90636e-24)
(0.0684135 0.217649 4.55005e-22)
(0.432211 0.0471056 0)
(0.694855 0.0160087 0)
(0.736245 0.00775817 -3.69555e-22)
(-0.000818463 0.0228763 -5.41634e-24)
(-0.000128609 0.00727815 0)
(0.850729 -0.000833544 1.2083e-22)
(0.917 2.27965e-05 -2.79399e-23)
(0.973307 -2.55158e-05 4.94267e-24)
(0.755134 0.00408447 0)
(0.763785 0.0019837 0)
(0.770227 9.33956e-05 -1.07093e-22)
(0.772021 -0.0022638 4.62121e-22)
(0.758335 -0.00579065 0)
(-0.0102941 0.0362709 2.00838e-22)
(-0.00498446 0.025542 2.96065e-22)
(-0.00201498 0.0164099 -2.88475e-22)
(-0.0249071 0.103795 -1.85827e-22)
(-0.0191782 0.0484041 5.86581e-22)
(0.285439 0.079054 -1.32793e-22)
(0.576061 0.0315241 1.74991e-22)
(0.630868 0.0160337 -5.20639e-22)
(-0.000551528 0.0087991 4.55538e-23)
(-6.79412e-05 0.00255058 6.11114e-23)
(0.84139 -0.00213403 -2.56123e-22)
(0.917663 -0.000128796 8.58963e-23)
(0.973911 1.23928e-05 5.5135e-24)
(0.723212 -0.0148939 -1.14536e-23)
(0.656353 0.00857227 0)
(0.668283 0.00425661 1.93802e-22)
(0.677335 0.000258624 2.04936e-22)
(0.680216 -0.0046101 -8.86929e-22)
(0.662365 -0.0120455 2.28578e-22)
(-0.00832374 0.0138536 8.91785e-22)
(-0.00402119 0.00912451 -6.54531e-24)
(-0.00181363 0.00552323 0)
(-0.000639682 0.00297958 1.06152e-22)
(0.444598 0.0549624 0)
(0.511358 0.029376 6.65883e-22)
(-8.97407e-05 0.00129426 -1.00496e-22)
(5.43038e-05 0.000248816 -3.09741e-23)
(0.602786 -0.0238334 4.73815e-22)
(0.817978 -0.005804 1.50286e-22)
(0.912582 -0.000341467 0)
(0.9743 4.63644e-05 -5.31175e-23)
(0.614931 -0.0296049 -2.90199e-22)
(0.465305 -0.0466992 7.28454e-22)
(0.250559 -0.190443 -8.81779e-22)
(0.542734 0.0160745 0)
(0.557705 0.00799441 4.68364e-23)
(0.569659 0.000749086 -1.45807e-22)
(0.574272 -0.00836484 5.14477e-22)
(0.55303 -0.0222871 -8.74538e-22)
(-0.0147174 0.00618529 3.75561e-22)
(-0.00925106 0.00304026 -4.00567e-22)
(-0.00540973 0.00139003 -1.98533e-22)
(-0.00283925 0.000479802 3.93179e-22)
(-0.00119705 4.5838e-05 4.7345e-23)
(-0.000213484 -6.02768e-05 -2.86275e-23)
(-0.137022 -0.249406 5.90732e-23)
(0.411382 -0.147826 -6.15368e-23)
(0.731528 -0.00891975 -7.9877e-22)
(0.899967 -0.00109334 0)
(0.973168 0.00011563 0)
(0.493035 -0.0527919 5.54442e-22)
(0.321573 -0.0799432 -2.78798e-22)
(0.1049 -0.229378 1.02864e-22)
(-0.142009 -0.296894 1.38659e-21)
(-0.0459477 0.0109875 0)
(-0.0336349 0.00571997 1.87969e-22)
(-0.023374 0.00280742 -6.63914e-22)
(-0.0148791 0.00112995 1.85129e-22)
(-0.00788404 0.000288019 -4.41118e-23)
(-0.00212083 2.47184e-05 -2.73876e-23)
(-0.00793297 -0.286173 0)
(-0.120804 -0.194429 0)
(0.582609 -0.103357 4.89581e-22)
(0.84974 -0.000859549 -4.01064e-23)
(0.970256 0.000205126 -1.03533e-22)
(-0.0163316 -0.329102 -1.64941e-21)
(-0.074296 0.00960381 0)
(-0.0556786 0.00532147 1.94566e-22)
(-0.0395916 0.00266968 -1.54664e-24)
(-0.025797 0.00113757 9.62568e-23)
(-0.0140338 0.000353718 -4.52387e-23)
(-0.00405361 7.29162e-05 0)
(-0.0278453 -0.159922 -5.52433e-22)
(-0.00313668 -0.231215 0)
(-0.0950453 -0.135944 5.08875e-22)
(0.757757 -0.0597729 0)
(0.956384 0.00135024 7.68036e-23)
(-0.0470767 -0.199348 0)
(-0.0951499 0.00780246 0)
(-0.072055 0.00435338 1.21079e-22)
(-0.0517334 0.00222266 -3.51108e-22)
(-0.0340371 0.000980145 1.1364e-22)
(-0.018763 0.000333781 5.07583e-23)
(-0.0056479 8.88982e-05 -1.70271e-23)
(-0.0155072 -0.114251 2.83101e-22)
(-0.0146579 -0.120241 0)
(-0.000323559 -0.167925 -4.46015e-22)
(-0.0605273 -0.0775 4.30897e-22)
(0.93137 -0.0147287 0)
(-0.0281251 -0.142329 0)
(-0.103123 0.00668819 1.54422e-22)
(-0.0781644 0.00379426 -1.49095e-22)
(-0.0561982 0.00193704 1.44302e-22)
(-0.0370391 0.000849894 -2.76372e-22)
(-0.0204851 0.000290029 3.80093e-22)
(-0.00630537 7.73318e-05 -5.0683e-23)
(-0.0128665 -0.0640494 2.44499e-22)
(-0.00765815 -0.0856623 -5.23561e-22)
(-0.0060175 -0.0820352 1.52345e-22)
(0.00178251 -0.100084 -4.62481e-22)
(-0.0141825 -0.0213823 1.31104e-23)
(-0.0231858 -0.0818236 0)
(-0.014407 -0.0426739 -5.51638e-23)
(-0.103385 0.00715043 -1.90143e-22)
(-0.078253 0.00455078 7.66691e-22)
(-0.0563227 0.00245528 -7.32036e-22)
(-0.0372406 0.00106373 0)
(-0.0206791 0.000331167 0)
(-0.00645784 7.02711e-05 -5.56283e-24)
(-0.00792531 -0.033203 1.17651e-22)
(-0.00643183 -0.0470644 3.34132e-24)
(-0.0030102 -0.0582828 3.9912e-22)
(-0.00127448 -0.0464615 -1.49809e-22)
(0.00233363 -0.0308406 0)
(-0.00797635 -0.0191819 8.93536e-22)
(-0.0603716 0.0037156 8.35853e-22)
(-0.0395932 0.0023709 -8.64456e-22)
(-0.0217853 0.000845925 0)
(-0.00671428 0.000149474 -7.83871e-24)
(-0.00439387 -0.0143928 -2.36916e-22)
(-0.003909 -0.0241748 -9.19917e-23)
(-0.00263565 -0.0315035 1.89739e-22)
(-0.000640975 -0.033006 -1.29751e-22)
(0.000179028 -0.0140446 4.95385e-23)
(-0.00408068 -0.00617581 0)
(-0.00244433 0.00372443 -1.02091e-21)
(-0.0478266 0.0010191 0)
(-0.0167644 0.000358406 -2.73969e-23)
(-0.00148762 -0.00053304 0)
(-0.00217622 -0.00439049 -2.4094e-22)
(-0.00214428 -0.010132 -4.60642e-22)
(-0.00160646 -0.0160257 -6.2721e-23)
(-0.000699513 -0.0176412 1.27573e-22)
(7.44595e-05 -0.0102762 -4.97292e-23)
(-0.000988288 0.000135916 2.08413e-21)
(-0.00118479 0.00203339 2.1722e-21)
(-0.00282659 0.00375493 6.99459e-23)
(-0.00028589 0.000925706 -4.81676e-22)
(-0.000742881 -5.85927e-05 -7.90896e-25)
(-0.00102408 -0.00289701 1.24789e-22)
(-0.000876459 -0.00650949 3.73146e-22)
(-0.000451173 -0.00890079 7.65257e-24)
(-6.33566e-05 -0.00553443 -2.28827e-23)
(-0.000198509 -0.00134603 -1.57662e-24)
(-0.000414864 -0.000541889 -1.74337e-21)
(-0.000498235 0.00107155 -5.25241e-22)
(-0.00124109 0.00169359 0)
(-0.00294169 0.0085621 1.50594e-21)
(0.000186152 0.000895577 -2.58846e-22)
(-9.42162e-05 0.000911453 2.56709e-22)
(-0.000318739 0.000208308 1.28423e-22)
(-0.000404484 -0.00173078 0)
(-0.000249051 -0.00351069 -1.22311e-22)
(-5.99157e-05 -0.00279681 1.71955e-23)
(0.000102988 -0.00175418 8.2723e-22)
(-2.59649e-05 -0.00142777 3.33561e-22)
(-0.000150997 -0.000788652 1.96405e-22)
(-0.000158705 0.000477405 5.34298e-23)
(-0.000305646 0.000638352 -6.11572e-23)
(-0.000422508 0.00198764 1.08412e-21)
(0.000190249 0.000345572 1.08179e-21)
(0.000136296 0.000793588 -4.04857e-22)
(-1.95449e-05 0.000795452 -2.64174e-22)
(-0.000111572 0.000294342 -1.28581e-22)
(-0.000107522 -0.000860817 0)
(-3.64285e-05 -0.00107018 -1.1306e-23)
(0.00033623 -0.00138284 0)
(9.97983e-05 -0.00156533 -2.8614e-22)
(2.21463e-05 -0.00126536 -9.8568e-22)
(-3.69062e-05 -0.000744365 3.20896e-22)
(-2.08369e-05 0.000141963 -3.5701e-22)
(-1.12839e-05 5.4123e-05 9.61577e-24)
(0.000346008 0.000122061 -4.69918e-22)
(0.000112419 0.000271321 7.16375e-22)
(8.31594e-05 0.000638382 -6.93144e-22)
(2.24456e-06 0.000605743 1.32443e-22)
(-2.01345e-05 0.00024447 0)
(-1.09092e-05 -0.000234852 1.11789e-23)
(0.000271767 -0.000503265 0)
(0.000210147 -0.00117234 5.50448e-22)
(6.9492e-05 -0.00125918 7.16259e-22)
(2.48517e-05 -0.000960681 9.38989e-22)
(6.08097e-06 -0.000519019 -3.33144e-22)
(8.49536e-06 2.19158e-06 -2.19759e-23)
(0.000736474 0.000172919 -5.61089e-22)
(0.000258715 6.81305e-05 0)
(5.69063e-05 0.000194157 5.14445e-22)
(4.12267e-05 0.000455308 0)
(8.44392e-06 0.000373559 0)
(4.50063e-06 0.000102839 0)
(0.000515495 -0.000156854 6.27144e-22)
(0.000151626 -0.000393616 -5.69281e-22)
(0.000115409 -0.000908615 -5.60112e-22)
(3.90453e-05 -0.000898026 -4.17971e-22)
(1.82287e-05 -0.000587218 -4.34462e-22)
(1.13363e-05 -0.000192325 1.30857e-23)
(0.00102666 9.73597e-05 0)
(0.000609287 0.000101606 1.40615e-22)
(0.000178361 3.41098e-05 0)
(2.2737e-05 0.000123594 2.09689e-27)
(1.5225e-05 0.000264801 0)
(6.81517e-06 0.000123904 -8.9823e-23)
(0.00114357 1.8319e-06 0)
(0.0010426 -0.00015246 -5.6602e-22)
(0.000387424 -9.09951e-05 -1.57892e-22)
(7.30783e-05 -0.000279793 2.9192e-22)
(5.34149e-05 -0.000629102 -4.15033e-22)
(1.85996e-05 -0.000523355 -1.31454e-22)
(1.01719e-05 -0.000193343 9.1509e-23)
(0.000849829 5.55878e-05 -1.88829e-23)
(0.00046586 5.34251e-05 -2.10293e-22)
(0.000110917 1.37036e-05 0)
(4.98561e-06 6.37142e-05 -1.08231e-22)
(4.60407e-06 7.93617e-05 9.06123e-23)
(0.000942642 -9.24828e-07 2.0994e-24)
(0.000853749 -9.34651e-05 6.35652e-22)
(0.000269381 -4.63136e-05 -5.41731e-27)
(2.84618e-05 -0.000177393 1.3232e-25)
(1.84382e-05 -0.000356289 -2.65347e-22)
(7.97483e-06 -0.000160768 8.36276e-23)
(0.000653851 2.89556e-05 1.48631e-22)
(0.000321129 2.41516e-05 1.02592e-22)
(5.6689e-05 2.99817e-06 -1.26209e-22)
(-4.17888e-07 1.54286e-05 2.30097e-23)
(0.000723846 -1.73307e-06 2.09489e-24)
(0.0006506 -5.14133e-05 -1.40602e-22)
(0.000169452 -1.88344e-05 4.5411e-22)
(6.05761e-06 -9.13426e-05 -2.12761e-22)
(5.1546e-06 -0.000102361 3.54096e-26)
(0.000455225 1.30906e-05 0)
(0.000183392 8.32865e-06 1.13869e-22)
(1.40724e-05 -4.49332e-07 7.97095e-23)
(0.000503641 -1.73072e-06 0)
(0.000448416 -2.43337e-05 -2.05673e-22)
(8.77576e-05 -4.24197e-06 3.95909e-22)
(-5.85157e-07 -2.2053e-05 4.39898e-23)
(0.000264266 4.60873e-06 -9.71205e-25)
(5.67903e-05 2.20854e-06 -1.43083e-22)
(0.000292443 -1.4584e-06 9.69943e-25)
(0.000256565 -9.05662e-06 -1.14019e-22)
(2.22311e-05 5.49394e-07 1.12934e-22)
(8.67582e-05 1.25522e-06 4.33997e-23)
(9.612e-05 -9.37971e-07 0)
(7.9853e-05 -2.86996e-06 -1.09957e-23)
(-0.143032 0.303575 2.2279e-21)
(-0.0273492 0.258454 5.08279e-22)
(-0.0416879 0.126842 0)
(-0.0751987 0.187261 2.79353e-21)
(-0.0630001 0.192602 -2.95208e-21)
(-0.0735249 0.266213 0)
(-0.0377205 0.309932 0)
(-0.0986139 0.352122 -1.02824e-21)
(-0.0860897 0.31266 0)
(-0.0399049 0.26552 -1.88513e-21)
(0.150357 0.125642 4.23594e-21)
(-0.096159 0.27617 0)
(-0.0334411 0.0628412 -3.66949e-22)
(-0.055505 0.10359 0)
(-0.0160163 0.0190745 -3.83271e-21)
(-0.0380672 0.0462987 3.92213e-21)
(-0.0821862 0.119382 -2.27873e-21)
(-0.113748 0.156191 0)
(-0.0951118 0.200549 0)
(-0.119177 0.236706 6.1972e-22)
(-0.110248 0.2927 0)
(-0.09929 0.287249 1.96004e-21)
(-0.0184565 0.192061 2.37211e-21)
(0.0917865 0.153779 -5.71578e-21)
(0.298798 0.0897886 1.12278e-21)
(-0.150226 0.230948 -5.91314e-22)
(-0.14222 0.248407 0)
(-0.0213689 0.0118764 -3.17407e-21)
(-0.048519 0.0281134 8.69213e-22)
(-0.0598198 0.0511926 7.23672e-22)
(-0.0898507 0.0800871 2.31697e-21)
(-0.119264 0.0785422 -4.46689e-21)
(-0.164553 0.111905 -3.9489e-21)
(-0.157675 0.152729 -3.01746e-21)
(-0.183543 0.180526 5.65271e-21)
(-0.13374 0.204282 -1.64401e-21)
(-0.0640488 0.180432 -1.71465e-21)
(0.0371431 0.125225 0)
(0.380718 0.0488955 -5.74838e-21)
(0.184685 0.104235 0)
(0.414248 0.0281741 0)
(0.234728 0.0570181 4.83719e-21)
(-0.205995 0.166937 0)
(-0.180739 0.174079 0)
(-0.0126582 -0.276091 6.05394e-21)
(-0.147241 -0.328558 0)
(0.378419 -0.0817311 0)
(0.423915 0.0135201 -1.97573e-22)
(0.260731 0.0317126 0)
(0.258306 -0.0919124 0)
(0.445072 -0.0362751 1.18971e-21)
(0.444445 0.00140924 3.71317e-21)
(0.280856 0.00746919 0)
(0.305411 -0.042574 0)
(0.460314 -0.0147161 0)
(0.30885 -0.0145903 -3.77027e-21)
(-0.0629297 0.021943 1.15546e-21)
(-0.0954584 0.0349403 -1.45489e-21)
(-0.117979 0.047052 4.77811e-21)
(-0.16922 0.0523454 0)
(-0.197811 0.081352 0)
(-0.226311 0.0906635 -3.12053e-21)
(-0.245488 0.114076 -2.37199e-21)
(-0.156311 0.133002 0)
(0.0581417 0.0766727 3.35448e-21)
(-0.0424691 0.113005 0)
(0.138634 0.0405147 0)
(-0.00560546 0.0639019 -3.62792e-21)
(-0.263054 0.0994948 7.88222e-21)
(-0.229472 0.106197 -2.3282e-21)
(-0.0152909 -0.261412 -3.41594e-21)
(0.167251 -0.135551 7.69725e-21)
(0.139984 -0.153949 -6.0232e-21)
(-0.117032 -0.383337 1.70898e-21)
(-0.0813209 -0.324842 -3.72106e-21)
(-0.0377554 -0.355521 2.44357e-22)
(0.039334 -0.179261 -6.38686e-21)
(0.0403271 -0.148986 2.09389e-21)
(0.137326 -0.106677 3.24295e-21)
(0.117233 0.00825448 0)
(0.0114777 0.0343797 0)
(0.0718821 -0.0904104 -3.57397e-21)
(0.173523 -0.0550577 0)
(0.0841041 -0.0444766 -3.33309e-21)
(0.183138 -0.0207638 3.03947e-21)
(0.0445948 -0.0105943 4.63235e-21)
(-0.0949615 0.0154503 1.66387e-21)
(-0.137215 0.0236474 0)
(-0.163455 0.0325729 0)
(-0.206716 0.0374985 3.30599e-21)
(-0.237559 0.0549402 0)
(-0.265272 0.0551504 8.30951e-21)
(-0.286313 0.0697925 -7.09682e-21)
(-0.118528 0.0492054 0)
(-0.139476 0.0632915 -5.69911e-21)
(-0.22466 0.080094 1.16088e-20)
(-0.200925 0.0353332 0)
(-0.28795 0.0678628 -7.50426e-21)
(-0.297466 0.0623724 -4.00587e-21)
(-0.0912755 -0.308836 0)
(-0.0779132 -0.242061 7.75075e-21)
(-0.0727265 -0.236468 0)
(-0.0662719 -0.316117 -5.28854e-22)
(-0.0935482 -0.317859 4.1536e-22)
(-0.109966 -0.234176 -7.96026e-21)
(-0.070564 -0.181728 -7.31985e-21)
(-0.100792 -0.155599 9.7351e-21)
(-0.0502052 -0.110758 3.00825e-21)
(-0.116029 -0.0784645 -3.9379e-21)
(-0.0651277 -0.0502192 0)
(-0.0910117 -0.0187073 -3.20211e-21)
(-0.180131 0.00786394 0)
(-0.119603 0.0123703 0)
(-0.161948 0.0184314 -1.29116e-21)
(-0.191097 0.0237622 -5.05465e-21)
(-0.223326 0.0293238 4.33593e-21)
(-0.250955 0.0390021 -1.54132e-21)
(-0.268007 0.0404495 -1.97866e-21)
(-0.295742 0.050852 6.25821e-21)
(-0.275258 0.0407112 -6.98537e-21)
(-0.295551 0.0545187 8.51558e-21)
(-0.263092 0.0127379 0)
(-0.292503 0.0342786 -1.19504e-21)
(-0.309246 0.054643 0)
(-0.301455 0.0501389 0)
(-0.0463613 -0.166452 -1.24046e-20)
(-0.0901607 -0.239578 4.27841e-21)
(-0.111076 -0.248031 5.16924e-21)
(-0.125372 -0.278319 -7.1277e-22)
(-0.143123 -0.248988 6.57581e-22)
(-0.176001 -0.198873 -7.4832e-21)
(-0.180337 -0.160982 0)
(-0.200203 -0.105754 -9.37592e-21)
(-0.26981 0.0148421 -4.40704e-21)
(-0.236921 -0.0772918 6.82108e-21)
(-0.270378 -0.01851 2.81108e-21)
(-0.130413 0.010643 4.55366e-21)
(-0.280741 0.047414 2.71295e-21)
(-0.166309 0.0163807 -3.25342e-21)
(-0.190563 0.0213077 -2.81488e-21)
(-0.215945 0.028504 -6.09542e-21)
(-0.249604 0.0359436 1.36369e-21)
(-0.257927 0.0395557 -3.45156e-21)
(-0.280882 0.0405877 -2.70682e-21)
(-0.304598 0.0537486 6.75607e-22)
(-0.301442 0.0451585 1.23762e-21)
(-0.259927 0.0527189 4.83056e-21)
(-0.276633 0.0509901 2.00586e-21)
(-0.286951 0.057529 -1.28464e-21)
(-0.279132 0.054676 -1.92737e-21)
(-0.227501 0.0583795 -6.68637e-21)
(-0.037415 -0.0987572 0)
(-0.0612804 -0.156646 8.30163e-21)
(-0.17013 0.060695 0)
(-0.207 0.0505719 4.38339e-21)
(-0.111256 0.0570442 8.47012e-21)
(-0.135302 0.0537495 -5.59298e-21)
(-0.0841855 -0.170476 0)
(-0.124751 -0.209185 -4.91382e-21)
(-0.161621 -0.186272 1.50368e-20)
(-0.20542 0.0258273 -5.84198e-21)
(-0.232368 0.00734046 4.62853e-21)
(-0.175176 -0.146582 -1.07249e-20)
(-0.224083 -0.0716316 1.14088e-22)
(-0.212079 -0.0438804 -9.44372e-21)
(-0.129819 0.010721 0)
(-0.252268 0.0476987 0)
(-0.23275 0.0358438 2.61194e-22)
(-0.237607 0.0419823 -3.56495e-22)
(-0.16122 0.0183835 -5.06056e-21)
(-0.187816 0.0240666 5.3815e-21)
(-0.204823 0.0285743 4.66758e-21)
(-0.269393 0.0630953 1.83694e-21)
(-0.261503 0.0627267 -4.17915e-22)
(-0.232526 0.0703086 3.64167e-21)
(-0.213807 0.0696172 1.32752e-21)
(-0.244961 0.0518119 -5.49945e-21)
(-0.249803 0.0651772 1.96331e-23)
(-0.256664 0.0576447 4.6958e-21)
(-0.188107 0.075193 2.3011e-21)
(-0.164223 0.0739278 -7.50507e-21)
(-0.110781 0.0677176 2.88134e-21)
(-0.13467 0.0743284 2.38209e-21)
(-0.0883277 0.0657837 -3.36149e-21)
(-0.0527919 0.0490368 0)
(-0.0697366 0.0549668 2.79284e-21)
(-0.0842542 0.0510334 -2.39809e-22)
(-0.0761914 0.0440816 0)
(-0.0231795 -0.0514598 -4.2109e-21)
(-0.0462922 -0.0887345 4.11992e-21)
(-0.055999 -0.0954757 2.89502e-21)
(-0.0907868 -0.128586 0)
(-0.0983576 0.0298549 1.02072e-20)
(-0.129832 0.0318243 0)
(-0.156246 0.0175586 5.6669e-21)
(-0.115064 -0.107442 1.30942e-22)
(-0.1411 -0.0242509 1.53574e-21)
(-0.144501 -0.115074 -4.22942e-21)
(-0.16928 -0.0514543 8.48472e-21)
(-0.0126771 -0.0244043 -4.97499e-22)
(-0.0233322 -0.0407193 0)
(-0.119822 0.00978888 0)
(-0.0810552 0.00339096 -5.19001e-22)
(-0.0979296 0.00445447 5.23184e-22)
(-0.211521 0.0402145 -3.02514e-21)
(-0.221243 0.0493654 2.65864e-21)
(-0.142299 0.0151086 0)
(-0.175182 0.0233381 -2.47396e-21)
(-0.190147 0.0320422 2.9755e-21)
(-0.186334 0.0793213 1.24235e-21)
(-0.224978 0.0700213 -2.02405e-21)
(-0.218506 0.0746302 -2.56633e-21)
(-0.205943 0.055111 -3.42554e-21)
(-0.205902 0.0655847 6.78737e-22)
(-0.164819 0.0775451 0)
(-0.138038 0.0778168 0)
(-0.125076 0.0764516 0)
(-0.0993415 0.0734818 -2.97004e-21)
(-0.0808864 0.0675159 -1.67047e-21)
(-0.0622873 0.0614787 3.97967e-21)
(-0.0464782 0.05061 0)
(-0.00709933 0.014013 0)
(-0.00452781 0.00939599 -6.64827e-22)
(-0.0130451 0.0245493 3.58255e-21)
(-0.020926 0.0329892 -3.1405e-21)
(-0.033407 0.0440754 0)
(-0.0235701 0.0312004 -5.83936e-21)
(-0.0359058 0.0380369 3.41844e-23)
(-0.00974431 0.0151738 0)
(-0.013341 0.0196151 -4.58683e-21)
(-0.00444547 0.00634841 0)
(-0.0378391 0.0337431 1.18738e-23)
(-0.0542859 0.0379389 1.82796e-23)
(-0.0533356 0.0291149 3.55195e-21)
(-0.084052 0.0247176 -4.32711e-21)
(-0.0330875 -0.0450638 8.83073e-21)
(-0.0554405 -0.0621069 -1.85888e-20)
(-0.0813705 -0.0616799 3.95986e-21)
(-0.079546 0.00912641 -2.28045e-21)
(-0.0883472 -0.0346544 8.39146e-21)
(-0.107213 -0.0201035 -5.89601e-21)
(-0.00628118 -0.00803413 0)
(-0.0118381 -0.0157842 0)
(-0.014638 -0.0169861 -3.65231e-21)
(-0.0291651 -0.0272423 -5.34332e-21)
(-0.00381865 0.0067345 5.6254e-22)
(-0.111366 0.00946222 1.26903e-21)
(-0.0660565 0.000602397 0)
(-0.0827985 0.0024352 -1.11037e-21)
(-0.138308 0.0269942 1.51009e-21)
(-0.163571 0.0344966 -4.49231e-21)
(-0.178136 0.0506751 -7.67425e-23)
(-0.15232 0.062743 4.06139e-21)
(-0.170233 0.0701199 -4.7623e-21)
(-0.158257 0.0751786 3.23944e-21)
(-0.092088 0.0733197 -3.92047e-21)
(-0.120006 0.0723352 6.07683e-23)
(-0.117353 0.0766076 1.10991e-21)
(-0.034298 0.0494793 4.02499e-21)
(-0.0524009 0.0599596 -4.11149e-23)
(-0.0730347 0.0666092 1.95455e-21)
(-0.0102623 0.025622 1.75496e-21)
(-0.0252661 0.0418242 -2.12873e-21)
(-0.00579395 0.0166643 -1.5774e-21)
(-0.0149706 0.0183519 5.22039e-21)
(-0.0236863 0.0233974 0)
(-0.00455803 0.00589735 4.10405e-21)
(-0.00665141 0.00835146 -7.2539e-21)
(-0.00206419 0.00148704 0)
(-0.00219632 -0.00116309 0)
(-0.00429107 -0.0036672 -1.15678e-21)
(-0.0241272 0.019333 5.23658e-21)
(-0.0372477 0.0213015 -1.38114e-23)
(-0.0371237 0.014286 -1.07779e-20)
(-0.0569686 0.00776856 1.08844e-20)
(-0.0351358 -0.0174907 3.81457e-21)
(-0.0489667 -0.0167412 -3.09492e-21)
(-0.0431112 -0.00214113 -3.80932e-21)
(-0.00615763 -0.00455651 7.1803e-22)
(-0.011988 -0.00820354 2.03783e-21)
(-0.0195218 -0.00739634 1.41004e-21)
(-0.00465927 0.0126253 -3.03015e-21)
(-0.0272012 0.0460855 0)
(-0.0574119 0.0594397 0)
(-0.0873807 0.0335453 3.9491e-21)
(-0.101947 0.0514253 -2.7655e-21)
(-0.0944211 0.0623383 0)
(-0.0209135 0.00243425 3.09102e-23)
(-0.0587862 0.0138214 0)
(-0.00931391 0.028778 -1.02967e-22)
(-0.00109875 0.000207031 -6.09003e-22)
(-0.000449035 0.000829306 2.99525e-21)
(-0.00838878 0.00807217 7.48893e-21)
(-0.0133129 0.011397 0)
(-0.00158254 0.000833139 -3.3947e-21)
(-0.0032519 0.00235506 -1.07786e-20)
(-0.000568074 -0.000870347 5.95024e-21)
(-0.0016863 -0.000123615 4.22084e-22)
(-0.00526078 -0.00223446 0)
(-0.0144852 0.00705791 0)
(-0.0232404 0.00841308 0)
(-0.0255493 0.00083823 0)
(-0.00733614 -0.00181379 4.81645e-21)
(-0.0151264 -0.00358181 -4.11553e-21)
(-0.0171476 0.000544701 0)
(-0.00122783 0.00923492 0)
(-0.00103646 0.000329207 2.7236e-21)
(0.000234917 0.000914311 -6.83164e-21)
(0.000164713 0.000930572 1.18913e-20)
(8.64483e-07 0.000692315 -7.18679e-21)
(0.000461916 0.000689024 -2.33952e-21)
(0.000269298 0.000389598 0)
(-0.00315188 0.00156673 3.51686e-21)
(-0.00642446 0.0027849 0)
(-0.000114183 -0.0013619 0)
(-0.00057582 -0.000764739 0)
(4.10639e-05 -0.00173986 -1.29433e-21)
(-0.0015598 6.75487e-05 2.23691e-21)
(-0.00365211 -0.000240759 0)
(-0.00319753 0.000319579 6.76934e-21)
(-0.00486793 0.00172299 1.78997e-21)
(-0.00622363 0.00173755 -6.75124e-21)
(0.000332118 0.0005566 0)
(-0.00031635 0.000475755 5.28148e-21)
(0.000647275 0.000547779 8.56528e-21)
(0.000637699 0.000566654 -9.71521e-21)
(0.00041577 0.000204352 -1.74403e-22)
(0.00069415 0.000359492 7.23571e-21)
(4.10076e-05 -0.000891648 1.45287e-21)
(-0.000603139 -0.000173612 -1.08947e-21)
(0.000442531 -0.00147815 -8.36642e-21)
(0.000507288 -0.0015962 1.14321e-20)
(0.000558963 -0.00134683 0)
(-2.29591e-05 0.00046779 -5.36051e-21)
(-0.000665251 0.000738148 -7.84603e-21)
(0.000272355 0.00025424 1.16327e-20)
(0.000343566 -0.000222834 0)
(0.000687752 -0.000954926 0)
(0.000389557 -0.000563124 4.46045e-21)
(0.000890646 0.000453226 3.3585e-21)
(0.000797737 0.000488446 -5.95639e-21)
(0.000830616 0.000265156 -1.30623e-22)
(0.00101003 0.00035495 1.69162e-24)
(0.000972352 -0.000789571 0)
(0.00110525 -0.000848144 1.95078e-21)
(0.00115175 -0.000400097 -1.68527e-21)
(0.00126498 0.000212482 -3.98017e-24)
(0.00132725 -0.000210185 7.99897e-22)
(0.00110774 -4.40362e-07 6.32366e-21)
(0.000611242 -0.000247764 -5.91251e-21)
(0.00104486 -0.000448439 0)
(0.00117174 0.000163344 -8.83396e-21)
(0.00133916 0.000157052 4.21163e-21)
(0.00131777 1.41791e-05 4.48409e-21)
(0.00121341 -0.000231784 0)
(0.00134969 -0.000203712 -4.91268e-21)
)
;

boundaryField
{
    movingWall
    {
        type            fixedValue;
        value           uniform (1 0 0);
    }
    fixedWalls
    {
        type            noSlip;
    }
    frontAndBack
    {
        type            empty;
    }
    defaultFaces
    {
        type            empty;
    }
}


// ************************************************************************* //
