/*--------------------------------*- C++ -*----------------------------------*\
  =========                 |
  \\      /  F ield         | OpenFOAM: The Open Source CFD Toolbox
   \\    /   O peration     | Website:  https://openfoam.org
    \\  /    A nd           | Version:  8
     \\/     M anipulation  |
\*---------------------------------------------------------------------------*/
FoamFile
{
    version     2.0;
    format      ascii;
    class       surfaceScalarField;
    location    "0.023";
    object      phi;
}
// * * * * * * * * * * * * * * * * * * * * * * * * * * * * * * * * * * * * * //

dimensions      [0 3 -1 0 0 0 0];

internalField   nonuniform List<scalar> 
1107
(
0.000315971
-0.000643295
0.000633435
-0.000306111
0.000616958
-0.000300987
-2.96364e-05
0.000646594
0.000304975
0.000538602
-0.000106592
-0.000736985
-0.000968445
0.000630124
-9.73935e-05
0.000701192
0.000286073
-5.35822e-05
-1.49134e-05
-3.71799e-05
0.000683774
-3.32592e-05
1.44251e-05
-8.77575e-05
0.000180594
-0.000148451
-6.54025e-05
0.000300243
-0.000856634
-0.00126706
0.000598853
-0.000206733
0.000739464
0.000760339
-9.63266e-05
4.15809e-05
0.000813813
-9.50548e-05
3.59728e-06
-4.27544e-05
-1.13161e-05
0.000725355
0.000851484
2.97885e-05
-6.74604e-05
6.45467e-05
-0.0001269
-8.60969e-05
2.51777e-05
-4.83885e-05
0.000226688
-0.000139935
-0.000213653
0.000277494
-0.000116209
0.000296391
-0.000875531
-0.00150933
0.000538667
-0.000364899
0.000757018
0.000827366
-0.000184229
0.000896832
-0.00016452
5.22215e-06
-2.27989e-05
-6.09395e-06
-2.18787e-05
0.000863142
1.02213e-05
0.000755144
0.000942754
-0.000113382
0.000959367
-3.84921e-05
0.000947689
-2.3926e-05
3.56042e-05
3.52648e-05
-7.24652e-05
-4.88965e-05
1.35689e-05
-2.66926e-05
-8.18152e-05
-0.000130585
0.000320913
-0.000213754
-0.000320812
0.000396424
-0.000191719
0.000306189
-0.000785296
0.000458306
-0.00166145
-0.000567309
0.000741077
0.000878247
-0.000305458
0.000964066
-0.000250339
2.9864e-06
-1.22163e-05
-3.10756e-06
8.72573e-05
0.000913283
-5.28515e-05
0.000851538
-1.23228e-05
0.000765365
0.00101993
-0.000169243
0.00104306
-6.16292e-05
0.0010321
4.65653e-05
0.000992831
0.000126529
-0.00011691
0.000927924
0.000181817
5.70368e-05
-0.000103416
-3.54359e-05
2.74124e-05
-1.92721e-05
1.03438e-05
-9.62395e-06
-0.000128706
-0.000215633
-6.14345e-05
-0.000170687
0.000687379
-0.000796382
0.000897833
-0.000462214
0.00100361
-0.000356112
2.19394e-06
-4.0665e-06
-9.13622e-07
0.00086302
-6.6647e-05
0.000822279
-2.35917e-05
0.000753042
0.000819815
-0.00014571
0.000253819
0.00106939
-0.000235032
0.00109852
-9.07508e-05
0.00108997
5.5108e-05
0.00104731
0.000169195
0.000966182
0.000262942
4.528e-05
-3.04233e-05
-7.62912e-05
2.42562e-05
-1.44121e-05
1.13877e-05
-6.40364e-06
4.25254e-06
-2.48875e-06
0.000870095
-0.00064493
0.000993909
-0.000479925
8.77842e-07
-6.91807e-07
-3.57886e-08
0.000331327
0.000668485
-0.000179996
0.000789028
-7.17184e-05
0.000784431
-2.87997e-05
0.00072945
0.000821886
0.000398115
0.000619806
0.000533406
0.000386963
-0.00129331
0.00152615
0.00106876
-0.000309881
0.00110565
-0.000127638
0.00110402
5.673e-05
0.00106067
0.000212551
0.000961967
0.000361642
-3.54719e-05
-5.51944e-05
6.02431e-05
-1.90922e-05
-3.07918e-05
-9.02503e-06
-1.64708e-05
-3.36051e-06
-8.15327e-06
-6.67841e-07
-3.38448e-06
-7.03636e-07
0.000991131
0.000342662
-0.00094683
0.000370915
-0.00099574
0.000687302
-7.82693e-05
0.000738418
-2.57053e-05
0.000700651
0.000784625
0.000575458
0.000542447
0.000775584
0.000409084
0.00165952
0.00047852
0.000921695
-5.65949e-05
-9.37724e-05
9.51728e-05
-3.06818e-05
-5.67049e-05
-1.44994e-05
-3.26533e-05
-5.3737e-06
-1.7279e-05
-1.07738e-06
-7.68081e-06
-1.78101e-06
0.000106035
0.000295861
-5.92331e-05
0.000226275
-0.000802191
0.000357575
-0.000666013
0.000680573
-2.04238e-05
0.000674945
0.000408092
0.000176463
-4.28338e-05
-0.000122341
7.14026e-05
-2.35868e-05
-7.59519e-05
-1.13679e-05
-4.48721e-05
-4.33169e-06
-2.43151e-05
-9.41736e-07
-1.10708e-05
-2.72274e-06
0.000249365
0.000196887
-0.000150391
0.000198525
-3.14832e-05
0.000135489
-0.000580105
0.000342932
-0.000328372
0.000654522
0.000288089
0.000369368
-1.3367e-05
-0.000130219
2.12447e-05
-7.61724e-06
-8.17017e-05
-3.78813e-06
-4.87012e-05
-1.52926e-06
-2.6574e-05
-3.77358e-07
-1.22227e-05
-3.1001e-06
0.000149494
0.000130716
-8.33222e-05
0.000125461
-7.73272e-05
0.000119483
-1.54767e-05
6.96941e-05
-0.000306867
0.000326149
0.000192884
0.000244698
1.45516e-05
-0.000118255
-2.6516e-05
7.43044e-06
-7.45806e-05
3.32826e-06
-4.4599e-05
1.1802e-06
-2.44259e-05
1.94106e-07
-1.12366e-05
-2.906e-06
0.000125908
7.5004e-05
-7.0196e-05
8.25056e-05
-4.03668e-05
7.22147e-05
-3.00593e-05
5.86799e-05
-4.46251e-06
1.92818e-05
0.000113825
0.000204967
-8.40081e-05
5.74878e-05
0.000140346
1.65173e-05
-3.59159e-05
-9.8856e-05
7.77682e-06
-6.58401e-05
3.3441e-06
-4.01663e-05
1.20719e-06
-2.2289e-05
2.33395e-07
-1.02628e-05
-2.6726e-06
3.70144e-05
-4.60185e-05
4.62953e-05
-3.39857e-05
4.71376e-05
-1.52897e-05
3.45222e-05
-5.90162e-06
1.48193e-05
-4.83939e-05
2.42585e-05
8.16233e-05
-3.02004e-05
5.45789e-05
-6.45448e-05
-1.19093e-05
-4.05802e-05
-2.67405e-06
-1.9498e-05
-5.34661e-06
1.4837e-05
-2.62165e-05
2.22963e-05
-2.20195e-05
2.59677e-05
-1.28158e-05
2.23166e-05
-3.08404e-06
8.91763e-06
6.63131e-06
-2.39577e-05
4.15848e-05
-2.67027e-06
6.21677e-06
7.20219e-06
-1.07487e-05
-1.22853e-05
5.29869e-05
-6.01996e-05
-1.7632e-05
-2.21835e-08
-8.19344e-06
1.48469e-05
3.55506e-06
-1.26757e-05
8.49342e-06
-1.24137e-05
1.22251e-05
-8.27689e-06
1.21407e-05
-2.6399e-06
5.83359e-06
4.26183e-07
3.69046e-06
-6.7869e-06
-9.53616e-07
3.04468e-06
4.1257e-06
-1.95927e-06
7.89773e-06
-1.56897e-05
9.75129e-06
-1.68859e-06
-1.24317e-06
2.90957e-06
-5.11576e-07
-4.12681e-06
1.70486e-06
-5.88715e-06
4.43625e-06
-4.62481e-06
5.60838e-06
-1.74454e-06
3.19369e-06
2.11526e-06
1.47882e-06
-3.16789e-06
8.88115e-07
1.84873e-06
-1.91317e-07
1.27672e-06
-8.16389e-07
2.84096e-06
5.87315e-06
-2.55629e-06
4.49672e-06
-2.23375e-05
2.03971e-05
-1.36818e-06
1.17455e-06
-1.49496e-06
-1.32551e-06
-4.29239e-07
-6.03123e-07
-1.81882e-06
7.14185e-07
-2.16509e-06
1.94963e-06
-9.66053e-07
1.44915e-06
2.58832e-06
-4.24243e-08
-4.30634e-07
1.74345e-06
6.23482e-07
8.34225e-07
8.23186e-07
5.58306e-08
4.04505e-07
-2.4173e-07
5.26393e-07
-5.57796e-07
5.05451e-06
-8.19767e-07
1.13344e-06
-1.68186e-06
-9.32299e-07
7.81325e-07
-9.33838e-07
-9.85258e-08
-4.76112e-07
-6.28527e-07
2.33949e-07
-4.49413e-07
4.83098e-07
1.92157e-06
-1.50511e-06
2.17185e-06
1.85301e-06
-1.51984e-07
1.23349e-06
2.24212e-07
5.92577e-07
2.86433e-07
9.08349e-08
7.19424e-08
-3.13993e-08
-1.11385e-06
-6.20437e-07
9.14521e-07
-4.696e-07
6.70738e-07
-5.81174e-07
4.28659e-07
-5.73249e-07
-1.39214e-09
-2.76442e-07
-1.18139e-07
3.36836e-08
1.10384e-06
-1.45617e-06
2.2739e-06
1.26208e-06
-9.1416e-07
1.20365e-06
-1.22148e-07
7.57907e-07
5.88803e-08
3.23473e-07
5.37916e-08
4.0544e-08
-1.60341e-06
-9.09119e-07
1.39868e-06
-7.14854e-07
-3.75193e-07
-2.4951e-07
3.3907e-07
-3.23762e-07
1.7917e-07
-2.86549e-07
8.71161e-09
-8.44565e-08
1.52958e-06
8.84892e-07
-1.31063e-06
6.37367e-07
-8.31441e-07
7.59792e-07
-4.70304e-07
6.97804e-07
-6.20456e-08
3.76915e-07
5.44041e-09
9.43347e-08
-1.92179e-06
-5.22888e-07
8.41263e-07
-1.09027e-06
-5.337e-07
-4.27461e-07
-1.97243e-07
-1.17756e-07
1.33061e-07
-1.48625e-07
4.12439e-08
-7.57447e-08
-1.91476e-06
4.08564e-08
-4.78769e-08
8.05692e-07
-1.19087e-06
9.85181e-07
5.37086e-07
3.39625e-07
-4.11271e-07
4.13344e-07
-1.85843e-07
3.32415e-07
-1.75432e-08
9.97746e-08
-1.3148e-06
-2.98348e-07
-6.90573e-07
-2.70588e-07
-2.32774e-07
-8.22265e-08
-4.35509e-08
2.79872e-08
-3.45007e-08
-1.30456e-06
3.06331e-08
4.86325e-07
5.93862e-07
2.82854e-07
1.61382e-07
-1.59305e-07
1.86603e-07
-4.00284e-08
8.22326e-08
-8.39906e-07
-1.49015e-07
-3.95852e-07
-1.07509e-07
-1.06374e-07
-1.94029e-08
-6.5138e-09
-8.28321e-07
1.9051e-08
2.51867e-07
3.26305e-07
1.17933e-07
6.03248e-08
-3.30262e-08
4.22048e-08
-4.85441e-07
-5.94246e-08
-1.89458e-07
-2.44236e-08
-2.59168e-08
-4.76129e-07
9.74062e-09
1.02043e-07
1.50335e-07
2.79234e-08
9.17849e-09
-2.34918e-07
-1.39642e-08
-5.03398e-08
-2.28503e-07
3.32658e-09
2.38749e-08
3.7102e-08
-6.43035e-08
-6.09769e-08
0.000595264
-0.00138056
-0.00106618
0.000318834
-0.000534467
0.000855329
-0.000536495
0.000534517
0.00130093
-0.000766413
0.00110921
-0.00027135
0.0015637
-0.00183505
0.000497519
-0.000298863
-0.00138367
0.000617262
0.000137194
-0.000307882
-0.000397273
4.40123e-05
-0.000120303
-0.000263869
0.000323296
-0.000720569
0.00116338
-0.000840082
0.000626882
-0.000756792
0.00205761
-0.00144034
0.000222552
0.00129605
-0.0010735
0.000997191
0.000352261
0.000999614
-0.00175641
-0.000440729
-6.00604e-05
0.000226806
-0.000286867
-3.70629e-05
-0.000757631
-7.04605e-05
-0.000687171
0.00134447
-0.00141493
0.00050439
-0.00125202
0.00139539
-0.00183612
0.000321885
0.000869856
-0.000547971
-0.00122212
0.000742191
-0.00134392
0.00103404
-0.00060173
0.00094236
-0.00219438
-0.000893756
0.00085185
0.000807667
0.00177355
-0.000400621
0.000976079
-0.0014437
0.00131606
-0.000409657
-0.00113041
0.000729788
-0.000768767
-0.00127817
0.0013349
3.78911e-05
-0.00125307
0.000484303
-0.00104052
0.000294379
-0.000191694
0.000127668
-0.000319362
-0.000559503
0.000266915
-0.000826418
-0.00114802
0.000173745
-0.00132176
-0.00202063
0.00108518
-0.00197894
-0.000537212
-6.4518e-05
-0.000602481
0.000192825
-0.000666999
-7.19581e-05
-0.00194867
-0.0020509
-0.000877064
0.00168473
-0.00010148
0.000874599
0.000296252
0.00147729
0.00198098
0.00165376
1.23841e-05
0.000862215
-0.000950065
0.000962449
-0.000220277
-0.00048959
0.000527481
-0.000296766
-0.000891668
0.000671391
-0.000407364
-0.000724438
0.000317074
-0.00043006
9.74218e-05
-0.000247959
7.56624e-05
-0.000323622
-0.000750756
2.53643e-05
-0.00077612
-0.0012964
-0.000360046
-0.000936352
-0.00230872
0.000949683
-0.00124645
0.000282683
-0.00176821
-0.00147812
0.000231674
0.000932137
-0.00270035
-0.00137658
0.000578722
0.00140226
0.00144094
-0.000981167
0.00135053
0.000672589
0.00207485
0.000155572
0.00128537
0.00111802
0.000119245
0.000998776
0.000790636
0.000327997
0.00046264
0.000645071
0.000742492
-0.00073563
-0.000302377
5.79651e-06
-0.000308173
-0.000770324
-0.000345728
-0.000424596
-0.00128208
-0.000422298
-0.000859781
-0.00179888
0.00202017
-0.00178849
-0.000680183
0.00172543
-0.00246106
-6.30639e-05
0.00126056
-0.00194074
-0.000538324
-0.000588743
0.000833441
0.000761792
-0.00114955
0.00191134
0.000925299
0.00221066
0.00146104
0.000749622
0.00245982
0.00292246
-0.000628021
0.00198841
-0.00136039
0.00308908
-0.000166624
-0.000334689
0.000548198
-0.00108652
-9.43891e-05
-0.0002403
-0.000518985
-0.000119476
-0.000399509
-0.000979257
-0.000431059
0.0017466
0.00024181
-0.00168354
-0.000257198
-0.000685847
0.000927657
-0.000936284
-0.000150239
0.000629325
-0.000886523
-0.000306959
-0.00111046
0.000424618
-0.000304756
0.000509723
0.000528685
2.18929e-05
-0.000564802
0.000542909
-0.00108857
-0.000113702
0.000325541
-0.000211839
-0.000678504
-0.000647982
0.00117667
0.00126336
0.00201298
-0.000330495
-0.000758077
-0.00169089
0.00119132
0.000821659
0.0010247
-0.000666189
-0.000276216
0.000380093
-0.000530332
-0.000646211
0.000215152
-0.000266117
-0.000123197
-0.000153019
-0.000522706
-0.000307555
-0.00119808
0.000311556
-0.000270422
-0.000573203
0.000302781
-0.000148586
-0.00048277
-4.7562e-05
0.000789729
-0.000478173
-0.000633374
0.000484789
-9.04651e-05
0.000344312
-1.87707e-05
0.000253847
-0.000205035
0.000186264
1.78259e-05
0.000134536
-0.000152362
-0.000187209
-0.000399048
-0.000238519
-0.00016053
-0.000106456
0.000246801
0.000403267
-0.000134129
0.000537396
0.00104254
0.000296559
-0.000535078
-0.000381945
-0.00114002
0.000464659
0.000577879
-0.000620128
-0.000519893
0.00128632
-2.44387e-05
0.000106062
0.000222363
0.000110117
-0.000263136
-1.12613e-05
-0.000444526
0.000178409
-0.000492088
-9.81901e-05
-0.000164946
-0.000405745
-0.000227336
0.000453166
3.16233e-05
-0.000755947
0.000277774
-0.000504648
1.25603e-05
-0.000226874
-0.000280868
0.000312491
-0.000324719
4.38514e-05
-7.08722e-05
-0.000223096
0.000152223
-3.68312e-05
-0.000123582
8.67506e-05
1.0954e-05
4.36182e-06
2.37933e-05
-2.81551e-05
1.1564e-05
-2.16536e-05
4.54469e-05
6.61098e-05
-8.77634e-05
7.70638e-05
-4.18455e-05
-4.59179e-05
-0.000194207
-2.10939e-05
-7.06125e-06
-6.70118e-05
-1.78099e-05
-9.12912e-05
-0.000102916
-0.000251821
-9.23e-05
-0.000159521
-0.000627378
-9.26209e-05
0.000314983
0.000444775
0.00102265
-0.000404226
-0.000223152
0.000924119
9.85353e-05
1.26672e-05
2.89176e-05
0.000118729
3.72531e-05
8.14761e-05
0.000352237
5.2138e-05
-0.000217084
1.24067e-05
-7.11592e-05
-0.000145925
-0.000298495
-0.000285935
-0.000222876
-6.3059e-05
-0.00044975
-0.000137259
0.000179558
-2.73349e-05
-0.00022341
8.61504e-05
5.02978e-05
2.6766e-05
0.000137048
0.000109714
3.87338e-05
6.71307e-06
6.54998e-05
1.64644e-05
-4.33078e-05
-2.3704e-05
-0.000146224
-1.94616e-05
1.65164e-06
-4.31655e-05
-5.13525e-06
1.08783e-05
3.96861e-06
3.97959e-05
-9.05522e-05
-5.56715e-05
-0.000250073
-0.000130788
-0.000119285
-0.00035394
0.000308345
4.38912e-05
0.000406881
5.29407e-05
1.3259e-06
3.847e-05
8.2802e-05
0.000126693
9.09514e-05
-2.54516e-05
0.000200665
-0.000223756
7.78316e-05
-0.000286815
-1.7632e-05
-5.05451e-06
-5.81687e-06
9.78548e-06
-2.90731e-06
-3.25451e-05
-1.06205e-05
-8.82166e-05
-1.09984e-05
5.86311e-06
-2.16188e-05
2.69522e-06
5.35813e-06
4.42734e-06
4.38281e-05
-6.14033e-05
-2.68133e-05
-0.000180689
-0.000127748
2.58843e-05
1.79439e-05
0.000152577
2.48294e-05
-3.97085e-06
8.39819e-06
3.31239e-06
-4.80736e-06
4.05076e-07
-3.56577e-06
-5.61858e-07
-4.2455e-06
-2.24373e-06
-2.7602e-05
5.98322e-06
-5.44153e-05
-2.78705e-06
5.48227e-06
3.1962e-06
5.05165e-06
1.03847e-05
-1.98655e-06
2.83286e-05
3.41976e-05
-5.86897e-06
-5.9027e-05
4.61172e-06
1.07304e-06
-4.63881e-06
-9.13509e-07
-1.35983e-06
-2.88567e-06
-5.99863e-06
-1.32922e-06
-4.21489e-06
-1.95969e-06
5.15588e-06
2.65204e-06
-3.02437e-06
5.19624e-06
2.02727e-06
7.18317e-06
3.03369e-06
-3.9472e-06
-2.83527e-06
-2.6656e-06
-1.69664e-07
-1.35647e-08
6.24356e-07
4.57189e-06
2.89827e-06
-3.62652e-06
-2.37212e-06
-7.57371e-06
-2.81621e-06
-5.18832e-06
4.89713e-07
4.08218e-06
7.67288e-06
7.65932e-06
-6.44705e-06
-1.12666e-06
6.61672e-06
1.0426e-06
1.58764e-06
5.66982e-06
-4.34704e-06
-5.4737e-06
-5.52156e-06
4.47896e-06
)
;

boundaryField
{
    movingWall
    {
        type            calculated;
        value           uniform 0;
    }
    fixedWalls
    {
        type            calculated;
        value           uniform 0;
    }
    frontAndBack
    {
        type            empty;
        value           nonuniform List<scalar> 0();
    }
    defaultFaces
    {
        type            empty;
        value           nonuniform List<scalar> 0();
    }
}


// ************************************************************************* //
