/*--------------------------------*- C++ -*----------------------------------*\
  =========                 |
  \\      /  F ield         | OpenFOAM: The Open Source CFD Toolbox
   \\    /   O peration     | Website:  https://openfoam.org
    \\  /    A nd           | Version:  8
     \\/     M anipulation  |
\*---------------------------------------------------------------------------*/
FoamFile
{
    version     2.0;
    format      ascii;
    class       volVectorField;
    location    "0.023";
    object      U;
}
// * * * * * * * * * * * * * * * * * * * * * * * * * * * * * * * * * * * * * //

dimensions      [0 1 -1 0 0 0 0];

internalField   nonuniform List<vector> 
424
(
(-0.00289863 -0.000174975 6.81092e-26)
(-0.0143026 0.0009491 0)
(-0.0128398 0.00271546 2.05768e-23)
(0.000163229 0.00310522 -1.13178e-24)
(-0.0460934 0.00502586 -2.48947e-23)
(-0.022483 0.000832437 -3.38441e-23)
(-0.00293504 0.0135387 3.13226e-24)
(-0.000981498 0.0151202 -6.98814e-25)
(-0.0668863 0.00254547 -3.60845e-23)
(-0.0251645 0.000295134 3.10664e-23)
(-0.0686332 0.00221753 9.54439e-23)
(-0.0235099 0.000450504 0)
(-0.00507325 0.0489426 1.21483e-24)
(-0.000947826 0.0238633 0)
(-0.0725106 0.000562744 3.29834e-23)
(-0.0249935 -4.12126e-05 1.74941e-23)
(-0.0576351 0.000674078 0)
(-0.0192263 7.65699e-05 0)
(-0.000340386 0.026463 0)
(-0.00262689 0.0712231 -2.8011e-23)
(-0.0715191 4.09693e-05 3.49185e-23)
(-0.0251952 -0.000337501 -1.87364e-23)
(-0.0559365 0.000234427 0)
(-0.019207 5.5719e-05 0)
(1.29681e-05 0.0254431 1.30891e-23)
(-0.000192302 0.0760575 2.52775e-23)
(-0.00226989 0.0668879 -3.71729e-23)
(-0.000404471 0.0228373 -3.85749e-23)
(-0.0730813 -0.000339701 5.8773e-23)
(-0.0226509 -0.000833986 0)
(-0.0146683 -0.000954759 -1.31342e-22)
(-0.00300373 0.000199384 0)
(-0.0517799 -1.72374e-05 -1.05623e-22)
(-0.01766 3.84946e-05 9.87683e-23)
(-0.0222591 0.0479167 6.83923e-23)
(0.00023837 0.0261532 0)
(0.000132966 0.0289812 -2.26851e-22)
(0.00335983 0.0627936 2.33697e-22)
(8.09822e-05 0.0727401 2.79885e-23)
(-0.000415954 0.0586984 3.92214e-24)
(-8.15971e-06 0.019579 -3.8498e-24)
(-0.0680597 -0.00251402 -1.05293e-22)
(-0.0476705 -0.00535158 1.33157e-22)
(-0.0138252 -0.00303893 0)
(0.000203159 -0.00332165 -2.95707e-22)
(-0.0483151 -0.000262942 3.47114e-22)
(-0.0158769 -3.2972e-05 0)
(-0.106115 0.152453 -1.89104e-22)
(0.809181 0.0278593 -5.02691e-23)
(-0.00068693 0.0761109 -1.62406e-23)
(-0.0057965 0.0846853 0)
(-0.00516475 0.165556 -3.61425e-24)
(-0.000239892 0.0565686 0)
(-4.39709e-05 0.0194907 0)
(-0.00392051 -0.0148849 5.94523e-23)
(-0.00123761 -0.016658 2.58617e-22)
(-0.0519316 -0.000613837 0)
(-0.0171245 -0.000150475 0)
(0.405398 0.118662 1.41727e-22)
(0.861003 -0.00378995 -1.19723e-23)
(0.00014249 0.0532044 -9.29011e-23)
(-9.08667e-06 0.0183335 8.80601e-23)
(-0.00654776 -0.0529532 0)
(-0.00102475 -0.0261414 0)
(0.550094 0.0127977 1.57134e-22)
(0.882091 -0.00214726 0)
(0.000393365 0.050439 -7.99452e-23)
(9.66326e-05 0.0171252 7.35685e-23)
(-0.00033257 -0.0286032 6.02382e-23)
(-0.00292933 -0.0768452 -1.85881e-23)
(0.880054 -0.00128747 -1.37611e-23)
(0.624301 0.00202229 -1.16272e-22)
(-0.00230895 0.0545621 0)
(-0.00021229 0.0205842 0)
(7.77473e-05 -0.0282027 4.72536e-23)
(-0.000371199 -0.0812731 1.90961e-23)
(-0.00184195 -0.0643183 -3.96304e-22)
(-0.000332149 -0.0219418 0)
(0.878478 -0.000317696 1.30004e-23)
(0.634882 -0.000753953 -4.94732e-23)
(0.826611 -0.0267642 0)
(0.000335613 -0.0281109 -9.09534e-23)
(0.88112 0.00140789 0)
(0.886107 0.00204832 0)
(0.865457 0.00377147 0)
(-0.019507 -0.04905 0)
(0.0035649 -0.0678689 -4.80141e-22)
(0.000160421 -0.0301558 5.94918e-22)
(0.000291612 -0.0799974 4.3636e-23)
(-0.000543784 -0.0563426 0)
(-3.57506e-05 -0.0188288 0)
(0.637173 -0.000728765 -2.08118e-23)
(-0.106227 0.00184363 -4.19321e-23)
(0.447198 -0.115139 9.64523e-22)
(-0.00050198 -0.081687 -8.90837e-23)
(0.639553 0.00130576 -1.23653e-22)
(0.641187 -0.00135773 2.57208e-22)
(0.568666 -0.010745 -1.24161e-21)
(-0.108492 -0.153619 -1.80754e-22)
(-0.00652749 -0.177848 7.00297e-22)
(-0.00659357 -0.088305 -5.68577e-22)
(5.30723e-05 -0.0559603 -3.09541e-23)
(3.43847e-05 -0.0192671 3.00191e-23)
(-0.0945678 4.55956e-05 0)
(-0.0409612 -5.20934e-05 -4.07822e-23)
(0.000382201 -0.0580086 -1.38362e-22)
(5.99992e-05 -0.0200483 -1.31551e-22)
(-0.096923 -0.000321842 2.39509e-23)
(-0.0342754 3.05918e-06 0)
(-6.15595e-05 -0.0566559 9.95286e-23)
(8.55979e-05 -0.0195465 -9.4882e-23)
(-0.0905419 -0.000141243 -2.48337e-22)
(-0.0355908 -0.000112204 -2.26782e-23)
(-0.00303464 -0.059145 0)
(-0.000232325 -0.0230537 0)
(-0.0835347 0.000311203 1.35728e-22)
(-0.0330525 -6.73484e-05 0)
(-0.0948082 -0.00159296 0)
(-0.0297891 -6.86944e-06 1.2141e-22)
(-0.0354731 -0.000106929 0)
(-0.0774149 0.0165803 2.51578e-24)
(-0.0230634 0.0114979 0)
(-0.0618165 0.0341704 0)
(-0.0117879 0.024234 -1.78924e-24)
(-0.126171 0.104013 2.65561e-23)
(-0.153024 0.0720278 4.73766e-22)
(-0.084021 0.132326 3.62338e-23)
(-0.104489 0.11339 -1.28151e-23)
(-0.150104 0.0607969 -7.97264e-22)
(-0.154758 0.0363024 -2.6184e-23)
(-0.132824 0.0277766 -7.15331e-22)
(-0.119154 0.0279731 -1.92211e-22)
(-0.141838 0.0462891 -6.37838e-22)
(-0.161064 0.0496709 8.32817e-22)
(-0.167965 0.0236838 -5.96953e-22)
(-0.174957 0.0261615 1.07582e-22)
(-0.10876 0.00650912 1.80981e-22)
(-0.160377 0.00719317 1.23815e-21)
(-0.106588 0.00534848 2.60614e-22)
(-0.132353 0.00286302 3.38448e-22)
(-0.0356408 0.0626174 2.88083e-23)
(-0.100461 0.109763 0)
(-0.0695434 0.0659297 -2.38466e-23)
(-0.098649 0.0887206 0)
(-0.0713511 0.134722 5.3824e-23)
(-0.0729491 0.143869 -1.38606e-22)
(-0.0187074 0.0838177 -4.17211e-25)
(-0.0487171 0.160334 2.19233e-22)
(-0.067884 0.130341 -4.81326e-23)
(-0.0459344 0.153186 2.85524e-22)
(-0.0599883 0.1013 -6.06988e-23)
(-0.0950572 0.0899458 -2.74895e-23)
(-0.106026 0.0645384 0)
(-0.0927333 0.0350567 1.21929e-22)
(-0.0227349 0.00237799 -2.97035e-22)
(-0.0638627 0.0137733 3.42692e-22)
(-0.155749 0.00852544 0)
(-0.174071 0.00888077 0)
(-0.182447 0.00219095 -8.59099e-22)
(-0.121255 0.000712943 -1.54353e-21)
(-0.176272 0.00217215 2.79408e-21)
(-0.0995611 0.0015047 7.0662e-22)
(-0.140365 -0.000251504 7.38519e-22)
(-0.0338351 0.1275 -2.32152e-23)
(-0.042981 0.148716 2.26136e-23)
(-0.0329861 0.172689 -2.34802e-22)
(-0.0062262 0.114899 7.79585e-22)
(-0.019976 0.177294 1.16159e-22)
(-0.025324 0.146659 4.86535e-23)
(-0.014408 0.163275 -2.99414e-22)
(-0.0327086 0.0868994 1.70501e-22)
(-0.0200834 0.128129 -1.16547e-21)
(-0.014041 0.0627134 0)
(-0.00239993 0.0223657 0)
(-0.16534 -0.000925529 8.73727e-22)
(-0.181813 -0.00023488 -2.60641e-21)
(-0.123897 0.00068889 -9.19179e-22)
(-0.173525 0.000121049 2.91194e-21)
(-0.0974496 -4.47423e-05 -1.15477e-21)
(-0.141163 -0.000444404 1.43742e-21)
(-0.0052634 0.159771 -6.97193e-22)
(-0.00641535 0.177584 5.23371e-22)
(0.00114838 0.124918 0)
(-0.00478252 0.155473 0)
(-0.00168675 0.182079 -1.055e-21)
(-0.00387006 0.100725 7.96426e-22)
(-0.000381288 0.129681 0)
(-0.165163 0.00205089 8.73646e-22)
(-0.179873 0.00126987 1.98247e-22)
(-0.127741 0.000680292 1.25987e-21)
(-0.17276 -0.00160111 -1.91392e-21)
(-0.178214 -0.00328361 -2.01434e-21)
(-0.0937875 -0.00068447 -2.26777e-21)
(-0.132624 -0.000618506 9.84636e-22)
(0.00364211 0.163708 7.67823e-22)
(0.000856644 0.119361 -8.13052e-22)
(-0.000405686 0.176376 2.55995e-21)
(0.00230235 0.182079 -1.97828e-21)
(-0.000657896 0.102336 0)
(0.00060888 0.141768 0)
(-0.157288 -0.00614144 -1.44941e-21)
(-0.176184 -0.00862372 0)
(-0.174881 -0.026666 1.76491e-21)
(-0.110898 -0.00634635 1.05718e-21)
(-0.165031 -0.0344658 -1.96588e-21)
(-0.166169 -0.031927 -3.24557e-21)
(-0.150369 -0.00721907 1.95911e-21)
(-0.156585 -0.0235343 1.79053e-21)
(-0.0929974 -0.000741687 -2.94482e-22)
(-0.119404 0.000394961 0)
(-0.000469083 0.163631 -4.28286e-22)
(-0.00390747 0.128882 0)
(0.00106158 0.175063 0)
(-0.000340433 0.180441 3.27645e-22)
(-5.67855e-05 0.0965137 0)
(0.00165339 0.14024 0)
(-0.144451 -0.0635749 0)
(-0.156978 -0.0564257 -2.16108e-21)
(-0.157167 -0.0603433 2.9191e-21)
(-0.130735 -0.0847785 0)
(-0.0763571 -0.0158275 0)
(-0.123626 -0.0269078 -1.21963e-21)
(-0.142062 -0.0341676 -2.28352e-21)
(-0.130019 -0.0670018 2.80439e-21)
(-0.141724 -0.0796007 -1.47859e-22)
(-0.0628397 -0.0328867 -7.02324e-22)
(-0.0242534 -0.0115967 0)
(-0.0133868 -0.0250683 2.14831e-21)
(-0.132879 -0.0325349 7.38701e-22)
(-0.137019 -0.0551563 -1.83544e-21)
(-0.0846984 -0.00144703 -1.30206e-21)
(-0.115172 -0.0260052 1.86063e-21)
(-0.114382 -0.0700602 8.61722e-22)
(-0.117831 -0.0859337 0)
(-0.101633 -0.0993983 1.57264e-21)
(-0.0308175 0.232424 3.18947e-24)
(-0.129438 0.297604 -2.98974e-21)
(-0.1416 0.223227 3.13495e-21)
(0.117969 0.186393 -2.52516e-21)
(-0.0156252 0.166912 1.44132e-21)
(-0.0180209 0.135776 -1.74519e-21)
(-0.0491498 0.203967 -8.93415e-22)
(-0.0169938 0.178294 -3.07944e-21)
(0.000754156 0.171502 -7.9004e-22)
(-0.00788822 0.175656 3.18951e-21)
(0.00108761 0.0917155 0)
(0.0021851 0.130625 2.90538e-22)
(-0.0640839 0.195045 4.23527e-21)
(-0.102486 0.188666 -1.32036e-21)
(-0.104588 -0.115849 4.15104e-21)
(-0.124893 -0.101763 2.4769e-21)
(-0.122368 -0.103676 -3.33055e-21)
(-0.074902 -0.0601212 5.33073e-22)
(-0.093552 -0.117035 0)
(-0.0990401 -0.0838844 2.47873e-22)
(-0.0370587 -0.0610923 -3.00277e-21)
(-0.0824476 -0.137321 -5.84225e-21)
(-0.0219668 -0.0862308 0)
(-0.0679843 -0.138244 2.05101e-21)
(-0.0483787 -0.155366 0)
(-0.0770245 -0.0267736 3.18357e-21)
(-0.0934426 -0.0604731 0)
(-0.0587149 -0.103376 -4.67232e-21)
(-0.0840492 -0.0922587 1.13925e-21)
(-0.0168928 -0.00141228 1.36261e-21)
(-0.0495471 -0.00924424 -5.47976e-21)
(-0.107898 0.236258 -5.34803e-22)
(-0.131105 0.19965 0)
(0.00806621 0.193764 1.97207e-21)
(-0.139462 0.106707 -1.29778e-21)
(0.262356 0.0567383 9.60425e-22)
(-0.0279216 0.174749 2.01881e-21)
(-0.0498466 0.173204 -2.27396e-21)
(-0.00866018 0.1458 -1.66953e-21)
(-0.0191768 0.148398 2.88229e-21)
(0.000810441 0.0890567 1.34664e-21)
(-0.0063906 0.114919 -8.90886e-22)
(-0.159835 0.0173665 0)
(-0.111296 0.122183 -1.9184e-21)
(-0.143471 0.0854041 1.08333e-22)
(-0.150468 0.0460428 3.14773e-21)
(-0.0548451 0.133386 -1.23009e-21)
(-0.0876861 0.109916 1.19842e-21)
(-0.0614821 -0.14299 2.24951e-22)
(-0.0610936 -0.157651 5.05498e-22)
(-0.0458785 -0.167786 0)
(-0.0365452 -0.123952 -2.84023e-22)
(-0.00838595 -0.125779 1.90331e-23)
(-0.0273051 -0.17323 -3.58591e-21)
(-0.029894 -0.150452 1.83598e-21)
(-0.0206337 -0.162672 -2.02944e-21)
(-0.0323595 -0.0903146 3.19301e-21)
(-0.0237758 -0.128531 -2.65698e-21)
(-0.0122725 -0.0595045 0)
(-0.00214049 -0.0208879 0)
(-0.0575871 0.0562127 -4.55627e-22)
(-0.119305 0.0259748 1.63873e-21)
(0.101389 0.0596884 -6.71311e-22)
(0.371943 0.017434 1.67923e-21)
(-0.128675 0.0157346 0)
(-0.177511 0.0100981 0)
(-0.0171382 0.114982 -2.09011e-21)
(-0.0346108 0.110249 0)
(-0.167726 -0.00525835 0)
(-0.16514 0.000769992 0)
(-0.00700474 0.0835469 0)
(-0.00672879 0.0939076 -9.51009e-22)
(-0.12645 0.00340016 0)
(-0.124966 0.0312505 -3.18661e-21)
(-0.0454123 0.0609596 0)
(-0.0846598 0.0649972 0)
(-0.0994161 0.037821 2.69846e-21)
(-0.1535 -0.0113792 5.67872e-22)
(-0.0116959 -0.176681 2.51133e-21)
(-0.0110899 -0.162427 0)
(0.000239751 -0.131277 -4.01764e-23)
(-0.00706648 -0.154686 0)
(-0.00341736 -0.180519 0)
(-0.00440827 -0.0994645 -3.51534e-21)
(-0.00272224 -0.12849 3.20732e-21)
(-0.0497867 0.016606 0)
(0.119795 0.0122034 -1.39279e-21)
(0.371971 0.00257732 0)
(-0.187268 0.00416226 -4.69344e-22)
(-0.158856 0.0088047 1.26744e-23)
(-0.14515 0.00530496 -2.51008e-22)
(-0.176269 0.00597477 1.30851e-22)
(-0.00495822 0.0294229 5.49214e-21)
(-0.0335251 0.0235523 -1.03193e-21)
(-0.0715413 0.0102151 -2.12177e-21)
(-0.0844115 -0.0150087 0)
(-0.0849888 -0.00516291 0)
(0.000253257 0.0086978 1.72497e-21)
(-0.000277924 0.0217357 -6.51511e-21)
(-0.0648728 -0.00583591 0)
(0.00195849 -0.16962 -5.43964e-22)
(0.000382315 -0.131064 3.98296e-23)
(-0.00167437 -0.174184 -4.62828e-21)
(0.00118277 -0.181634 4.30491e-21)
(-0.00143188 -0.0971765 0)
(0.000241137 -0.139054 -5.35471e-22)
(0.0938792 -0.00261242 0)
(0.359696 -0.00154497 0)
(-0.172374 -0.00183778 4.24996e-22)
(-0.0986618 -0.00211653 -3.632e-22)
(-0.151034 0.000228266 3.32172e-22)
(-0.186168 0.00675229 -5.54547e-22)
(-0.0249536 -0.000902567 0)
(0.130437 -0.185996 -5.76049e-21)
(-0.150587 -0.226155 9.82097e-21)
(-0.000537061 -0.167624 1.67188e-22)
(-0.00338289 -0.133478 0)
(0.000959386 -0.173775 3.94745e-21)
(-0.0005883 -0.180491 -2.87733e-21)
(0.000612682 -0.0944994 0)
(0.00236341 -0.144056 -1.0282e-21)
(0.0857681 -0.000218571 -3.83871e-23)
(0.354013 -0.00329638 -2.0935e-21)
(-0.194482 -0.00311982 -2.13698e-21)
(-0.107655 -0.00029362 -6.23576e-22)
(-0.154171 0.00167184 5.30926e-22)
(-0.193903 -0.00175645 0)
(0.265148 -0.052765 -6.95869e-21)
(0.0242667 -0.165509 -6.40286e-21)
(-0.0152137 -0.168129 0)
(-0.0194411 -0.140063 0)
(0.126373 -0.00822812 -3.06172e-21)
(0.379707 -0.0155358 2.60804e-21)
(0.125024 -0.0584957 1.15782e-20)
(-0.0551205 -0.208472 0)
(-0.114619 -0.217619 9.18855e-21)
(-0.0356757 -0.247947 1.6011e-21)
(-0.148785 -0.304001 -2.59448e-21)
(-0.0678409 -0.19059 -1.55028e-23)
(-0.0155818 -0.177855 -3.83649e-21)
(0.000237423 -0.172632 1.64965e-21)
(-0.00639526 -0.175281 6.071e-21)
(0.0011639 -0.103903 -3.64411e-21)
(0.000205027 -0.141157 2.36619e-21)
(-0.0534829 -0.0137403 2.45261e-21)
(-0.174751 0.00261081 3.72928e-21)
(-0.170321 -0.00572224 -3.36909e-21)
(-0.146227 7.32029e-05 2.48298e-22)
(-0.177916 -0.000204478 0)
(-0.0663326 -0.0644297 -3.84336e-21)
(-0.150913 -0.170785 -2.62846e-21)
(-0.045659 -0.170507 -6.38606e-21)
(-0.0276198 -0.171741 7.55022e-22)
(-0.131806 -0.0144078 0)
(-0.120077 -0.0272648 -9.96111e-22)
(-0.133319 -0.169946 -6.74112e-21)
(-0.0910651 -0.173888 8.70014e-21)
(-0.0754973 -0.126672 6.39079e-21)
(-0.0525543 -0.135491 0)
(-0.00763113 -0.139328 0)
(-0.018041 -0.143284 -2.51016e-21)
(-0.00137849 -0.0967454 0)
(-0.00759017 -0.118418 0)
(-0.190917 0.000246127 2.81685e-21)
(-0.181734 -0.00473785 -5.43441e-21)
(-0.138876 0.00217406 -2.61407e-22)
(-0.171684 -0.00295067 -1.59355e-21)
(-0.159517 -0.0177333 5.16152e-21)
(-0.151076 -0.0711362 -4.45859e-21)
(-0.019209 -0.113527 1.50566e-21)
(-0.0355013 -0.112125 3.62181e-21)
(-0.177369 0.00530362 4.45413e-21)
(-0.15936 0.00357553 -1.78718e-22)
(-0.0447317 -0.0619357 -8.00415e-21)
(-0.0790823 -0.0751004 3.85252e-22)
(-0.112172 -0.0596497 1.41755e-21)
(-0.0074355 -0.0817616 0)
(-0.0086715 -0.0914014 -2.74768e-21)
(-0.13946 -0.0045023 -2.15819e-21)
(-0.161035 0.00866574 1.53271e-21)
(-0.0899615 0.0173492 1.42503e-21)
(-0.00733222 -0.0264185 0)
(-0.0354116 -0.0191602 3.56237e-21)
(-0.104985 0.0122714 1.60251e-22)
(-0.0955308 -0.00726937 0)
(9.98562e-05 -0.00915071 0)
(-0.00140463 -0.0217325 0)
(-0.0624613 0.00691548 -3.74093e-21)
(-0.0229952 0.00116307 2.94426e-21)
)
;

boundaryField
{
    movingWall
    {
        type            fixedValue;
        value           uniform (1 0 0);
    }
    fixedWalls
    {
        type            noSlip;
    }
    frontAndBack
    {
        type            empty;
    }
    defaultFaces
    {
        type            empty;
    }
}


// ************************************************************************* //
