/*--------------------------------*- C++ -*----------------------------------*\
  =========                 |
  \\      /  F ield         | OpenFOAM: The Open Source CFD Toolbox
   \\    /   O peration     | Website:  https://openfoam.org
    \\  /    A nd           | Version:  8
     \\/     M anipulation  |
\*---------------------------------------------------------------------------*/
FoamFile
{
    version     2.0;
    format      ascii;
    class       volVectorField;
    location    "0.459";
    object      U;
}
// * * * * * * * * * * * * * * * * * * * * * * * * * * * * * * * * * * * * * //

dimensions      [0 1 -1 0 0 0 0];

internalField   nonuniform List<vector> 
424
(
(-0.00293622 -0.000190015 6.81318e-26)
(-0.0146521 0.000961578 0)
(-0.0131024 0.00276778 2.04601e-23)
(0.000179607 0.00315107 -1.16712e-24)
(-0.0473553 0.00514747 -2.47662e-23)
(-0.0230457 0.000844541 -3.38786e-23)
(-0.00299443 0.0138303 3.23473e-24)
(-0.000995362 0.0155061 -7.93858e-25)
(-0.0687386 0.00259475 -3.61315e-23)
(-0.0257661 0.000296804 3.1098e-23)
(-0.0703261 0.00228289 9.6379e-23)
(-0.0240389 0.000465987 0)
(-0.00519778 0.0503259 1.1675e-24)
(-0.000963654 0.0244888 0)
(-0.0744429 0.000564816 3.30264e-23)
(-0.0255821 -4.07924e-05 1.75111e-23)
(-0.0590513 0.000689223 0)
(-0.0196488 7.81015e-05 0)
(-0.000341382 0.0271143 0)
(-0.00267695 0.0732652 -2.78433e-23)
(-0.0734052 4.81258e-05 3.49547e-23)
(-0.0258217 -0.000338613 -1.87547e-23)
(-0.057322 0.000236503 0)
(-0.0196381 5.60108e-05 0)
(1.31929e-05 0.0260444 1.30695e-23)
(-0.000172597 0.0781357 2.51262e-23)
(-0.00233371 0.0684535 -3.74644e-23)
(-0.000418224 0.0233109 -3.89038e-23)
(-0.0750868 -0.000327182 5.88745e-23)
(-0.0232418 -0.000848014 0)
(-0.0150337 -0.00096942 -1.31699e-22)
(-0.00303885 0.000215716 0)
(-0.0530537 -1.92108e-05 -1.05689e-22)
(-0.0180557 3.82492e-05 9.88304e-23)
(-0.0222842 0.0479302 6.83822e-23)
(0.000239871 0.0268011 0)
(0.000145884 0.0295886 -2.27068e-22)
(0.00335075 0.0631455 2.33921e-22)
(8.24678e-05 0.0746664 2.79495e-23)
(-0.000419356 0.0601161 3.92265e-24)
(-6.77552e-06 0.019999 -3.85031e-24)
(-0.0699973 -0.00256863 -1.05446e-22)
(-0.0489929 -0.00549417 1.33518e-22)
(-0.0141029 -0.00310156 0)
(0.00022407 -0.00336419 -2.9552e-22)
(-0.0494755 -0.000265434 3.47001e-22)
(-0.016223 -3.37429e-05 0)
(-0.106049 0.152678 -1.89065e-22)
(0.809203 0.0278417 -5.01856e-23)
(-0.000696197 0.0781788 -1.62201e-23)
(-0.0057308 0.0866588 0)
(-0.00507352 0.16685 -3.61594e-24)
(-0.000244501 0.0579458 0)
(-4.43912e-05 0.0199183 0)
(-0.00400051 -0.0151981 5.94385e-23)
(-0.00125644 -0.0170693 2.58428e-22)
(-0.0531169 -0.000629316 0)
(-0.017476 -0.000155199 0)
(0.405639 0.118729 1.41482e-22)
(0.861377 -0.00378849 -1.19167e-23)
(0.000144677 0.0544647 -9.27301e-23)
(-8.89678e-06 0.0187232 8.78981e-23)
(-0.00671245 -0.0544278 0)
(-0.0010417 -0.0268101 0)
(0.551439 0.0129209 1.56434e-22)
(0.882731 -0.00213942 0)
(0.000408106 0.0516103 -7.97501e-23)
(9.87666e-05 0.0174755 7.3389e-23)
(-0.000335118 -0.029297 6.02647e-23)
(-0.00298283 -0.0790302 -1.8595e-23)
(0.880718 -0.00128592 -1.38277e-23)
(0.626377 0.00206135 -1.15916e-22)
(-0.00228602 0.0558803 0)
(-0.000204673 0.0209853 0)
(7.7171e-05 -0.0288872 4.72765e-23)
(-0.000366264 -0.0834877 1.91048e-23)
(-0.00189942 -0.065902 -3.9721e-22)
(-0.000343538 -0.0224369 0)
(0.879097 -0.000317033 1.30633e-23)
(0.637005 -0.000768033 -4.91205e-23)
(0.826678 -0.0267487 0)
(0.000338166 -0.0288255 -9.09963e-23)
(0.881774 0.0014074 0)
(0.886712 0.00204224 0)
(0.86584 0.00377292 0)
(-0.019522 -0.0491257 0)
(0.00355481 -0.0683083 -4.80778e-22)
(0.000174798 -0.0308339 5.95672e-22)
(0.000290599 -0.0821776 4.36577e-23)
(-0.000559859 -0.0577276 0)
(-3.69149e-05 -0.0192449 0)
(0.639157 -0.000725823 -2.08443e-23)
(-0.104735 0.00186898 -4.20515e-23)
(0.447584 -0.115196 9.64676e-22)
(-0.000518015 -0.0839594 -8.9127e-23)
(0.641642 0.00131802 -1.2372e-22)
(0.643165 -0.00139845 2.57371e-22)
(0.570046 -0.010839 -1.24185e-21)
(-0.1084 -0.154019 -1.80905e-22)
(-0.00644841 -0.179398 7.01051e-22)
(-0.00653523 -0.0905132 -5.69202e-22)
(5.52714e-05 -0.0573297 -3.09734e-23)
(3.51793e-05 -0.0196931 3.00378e-23)
(-0.0932051 5.79684e-05 0)
(-0.0405073 -4.34173e-05 -4.09736e-23)
(0.000387564 -0.0594269 -1.38401e-22)
(6.08792e-05 -0.020491 -1.31589e-22)
(-0.0956106 -0.000318147 2.40236e-23)
(-0.0338638 6.28002e-06 0)
(-6.40153e-05 -0.0579807 9.95371e-23)
(8.55255e-05 -0.0199462 -9.48902e-23)
(-0.0893452 -0.000141651 -2.48829e-22)
(-0.0351831 -0.000111241 -2.2747e-23)
(-0.00299843 -0.060584 0)
(-0.000220431 -0.0234981 0)
(-0.082407 0.000297712 1.35986e-22)
(-0.0326822 -6.71746e-05 0)
(-0.0935472 -0.0016189 0)
(-0.0294516 -9.4669e-06 1.21641e-22)
(-0.0350899 -0.000114703 0)
(-0.0797325 0.0171041 2.51299e-24)
(-0.0236562 0.0118481 0)
(-0.0636811 0.0352368 0)
(-0.0121548 0.0248786 -1.84936e-24)
(-0.129977 0.107082 2.70499e-23)
(-0.157668 0.074123 4.7714e-22)
(-0.0864194 0.136107 3.6015e-23)
(-0.107478 0.11659 -1.33057e-23)
(-0.154489 0.0625108 -8.02915e-22)
(-0.159261 0.0373133 -2.63923e-23)
(-0.136501 0.0285389 -7.20608e-22)
(-0.122902 0.0288311 -1.92555e-22)
(-0.146447 0.0477399 -6.42771e-22)
(-0.166193 0.0511781 8.39117e-22)
(-0.173065 0.0243203 -6.00144e-22)
(-0.180491 0.026822 1.08108e-22)
(-0.112015 0.00669868 1.81305e-22)
(-0.165211 0.00739681 1.24485e-21)
(-0.109432 0.00549315 2.62646e-22)
(-0.136147 0.00295642 3.40129e-22)
(-0.0367953 0.0645071 2.99013e-23)
(-0.103697 0.113236 0)
(-0.0718247 0.0680875 -2.47514e-23)
(-0.101903 0.091595 0)
(-0.0735696 0.138996 5.2997e-23)
(-0.0750862 0.148148 -1.36478e-22)
(-0.0193366 0.0863871 -2.96648e-25)
(-0.050119 0.165081 2.19492e-22)
(-0.0697595 0.13392 -4.78414e-23)
(-0.0472399 0.157529 2.86956e-22)
(-0.061591 0.10386 -5.76465e-23)
(-0.0975245 0.0922589 -2.77396e-23)
(-0.108765 0.0662133 0)
(-0.0950899 0.0359809 1.22424e-22)
(-0.0232889 0.00244747 -2.99285e-22)
(-0.0654532 0.0141523 3.45287e-22)
(-0.160691 0.00870846 0)
(-0.17971 0.00904308 0)
(-0.188164 0.00221193 -8.6364e-22)
(-0.124784 0.000722852 -1.54645e-21)
(-0.181816 0.00212983 2.80049e-21)
(-0.102248 0.00153802 7.08789e-22)
(-0.144519 -0.000259794 7.39604e-22)
(-0.0349226 0.131606 -2.11243e-23)
(-0.0443212 0.153553 2.05769e-23)
(-0.0339305 0.17806 -2.34683e-22)
(-0.00640152 0.118415 7.74646e-22)
(-0.0204745 0.18283 1.15939e-22)
(-0.0260386 0.15076 4.82122e-23)
(-0.014785 0.168129 -3.00194e-22)
(-0.0335777 0.0890483 1.6734e-22)
(-0.0206284 0.131577 -1.1726e-21)
(-0.0144274 0.0642294 0)
(-0.00246986 0.0228903 0)
(-0.170579 -0.000968549 8.75423e-22)
(-0.187708 -0.000297744 -2.61182e-21)
(-0.127502 0.000711345 -9.19984e-22)
(-0.178983 0.000117981 2.91446e-21)
(-0.100097 -4.62389e-05 -1.15727e-21)
(-0.145377 -0.000447481 1.4386e-21)
(-0.00533174 0.164869 -6.92775e-22)
(-0.00649981 0.18332 5.23054e-22)
(0.00121434 0.128622 0)
(-0.00490278 0.160079 0)
(-0.00167917 0.187764 -1.0547e-21)
(-0.00396858 0.103318 8.01917e-22)
(-0.000375952 0.133327 0)
(-0.170381 0.00217823 8.7441e-22)
(-0.185669 0.00138101 1.97117e-22)
(-0.131552 0.00071678 1.261e-21)
(-0.178107 -0.00155611 -1.91414e-21)
(-0.183753 -0.00332112 -2.0138e-21)
(-0.0963182 -0.000686809 -2.26911e-21)
(-0.136441 -0.000602631 9.84816e-22)
(0.00381305 0.168856 7.66836e-22)
(0.00086443 0.122819 -8.12e-22)
(-0.000312732 0.181909 2.55927e-21)
(0.0024802 0.187943 -1.97767e-21)
(-0.000652051 0.105072 0)
(0.000628264 0.145956 0)
(-0.162264 -0.00625052 -1.45071e-21)
(-0.181827 -0.00877916 0)
(-0.18036 -0.0274055 1.76532e-21)
(-0.114266 -0.00652885 1.05929e-21)
(-0.170281 -0.0355173 -1.96641e-21)
(-0.171155 -0.0328461 -3.24546e-21)
(-0.154732 -0.00740737 1.95861e-21)
(-0.161122 -0.0241945 1.79043e-21)
(-0.0954486 -0.000730654 -2.94385e-22)
(-0.122675 0.000427561 0)
(-0.000571317 0.168875 -4.27416e-22)
(-0.00393658 0.132696 0)
(0.00113361 0.180575 0)
(-0.000381234 0.186298 3.26981e-22)
(-6.54149e-05 0.0991036 0)
(0.00167036 0.144388 0)
(-0.148564 -0.0653409 0)
(-0.161664 -0.058039 -2.1617e-21)
(-0.162014 -0.0621519 2.9199e-21)
(-0.134407 -0.0871568 0)
(-0.078645 -0.0163427 0)
(-0.127569 -0.0277476 -1.22212e-21)
(-0.146689 -0.0352271 -2.28638e-21)
(-0.134202 -0.0691477 2.80832e-21)
(-0.146146 -0.0820317 -1.4793e-22)
(-0.0647453 -0.0339417 -7.03442e-22)
(-0.0248714 -0.0119636 0)
(-0.0137943 -0.0257319 2.14841e-21)
(-0.13647 -0.033423 7.37919e-22)
(-0.140756 -0.0566631 -1.83379e-21)
(-0.0868085 -0.00147804 -1.29961e-21)
(-0.118181 -0.026691 1.85714e-21)
(-0.117379 -0.071928 8.6123e-22)
(-0.121012 -0.0882667 0)
(-0.104342 -0.102069 1.57276e-21)
(-0.0302051 0.234872 3.19096e-24)
(-0.128204 0.299479 -2.98933e-21)
(-0.141197 0.2238 3.13431e-21)
(0.11856 0.18675 -2.51992e-21)
(-0.0154479 0.17195 1.44026e-21)
(-0.0177908 0.139175 -1.74391e-21)
(-0.0481457 0.20791 -8.9342e-22)
(-0.0168484 0.18394 -3.07491e-21)
(0.000772266 0.176801 -7.87748e-22)
(-0.00789493 0.181166 3.18215e-21)
(0.00109409 0.0941251 0)
(0.0022393 0.134328 2.8981e-22)
(-0.0626406 0.199771 4.23152e-21)
(-0.0997073 0.192644 -1.31935e-21)
(-0.10752 -0.119149 4.15217e-21)
(-0.128714 -0.104844 2.4784e-21)
(-0.125954 -0.106708 -3.33256e-21)
(-0.0773422 -0.0621168 5.33921e-22)
(-0.0964974 -0.120794 0)
(-0.102262 -0.086679 2.48067e-22)
(-0.038233 -0.0629175 -3.0029e-21)
(-0.0847193 -0.141334 -5.84351e-21)
(-0.0226886 -0.0888597 0)
(-0.069822 -0.14217 2.05127e-21)
(-0.0497004 -0.159885 0)
(-0.078892 -0.027456 3.18106e-21)
(-0.0957411 -0.0620458 0)
(-0.0602296 -0.10603 -4.67065e-21)
(-0.0861549 -0.0946144 1.13909e-21)
(-0.017282 -0.00145215 1.35887e-21)
(-0.0507199 -0.00948905 -5.47205e-21)
(-0.105469 0.238431 -5.34549e-22)
(-0.127765 0.202611 0)
(0.00997183 0.194912 1.96851e-21)
(-0.135426 0.1091 -1.29744e-21)
(0.264748 0.0573694 9.57975e-22)
(-0.027337 0.180245 2.01689e-21)
(-0.0485771 0.178462 -2.2714e-21)
(-0.00850177 0.150352 -1.66482e-21)
(-0.0187017 0.1533 2.87485e-21)
(0.00085527 0.0913699 1.34302e-21)
(-0.00632753 0.118255 -8.88794e-22)
(-0.155129 0.0189401 0)
(-0.108121 0.126073 -1.91578e-21)
(-0.139489 0.0884282 1.08996e-22)
(-0.146367 0.0485684 3.14563e-21)
(-0.0530425 0.137962 -1.22835e-21)
(-0.0850098 0.11389 1.19671e-21)
(-0.0634106 -0.147594 2.24966e-22)
(-0.0629158 -0.162592 5.05552e-22)
(-0.0471758 -0.172973 0)
(-0.0377287 -0.127874 -2.84042e-22)
(-0.00865091 -0.129645 1.90402e-23)
(-0.0279936 -0.178664 -3.58785e-21)
(-0.030719 -0.154788 1.83877e-21)
(-0.0212041 -0.16754 -2.03166e-21)
(-0.0332078 -0.092605 3.19134e-21)
(-0.0244248 -0.13207 -2.66101e-21)
(-0.0126082 -0.0609834 0)
(-0.00220224 -0.0213965 0)
(-0.0530285 0.0573314 -4.54543e-22)
(-0.113838 0.0269369 1.6324e-21)
(0.105247 0.0607378 -6.67998e-22)
(0.375441 0.0176544 1.67352e-21)
(-0.123017 0.0162647 0)
(-0.172581 0.0106478 0)
(-0.0163133 0.119151 -2.08481e-21)
(-0.033132 0.114461 0)
(-0.163597 -0.00422663 0)
(-0.160852 0.00215956 0)
(-0.00694386 0.0859449 0)
(-0.00615578 0.0972088 -9.49254e-22)
(-0.12309 0.00539159 0)
(-0.121482 0.0338209 -3.18303e-21)
(-0.043485 0.0642334 0)
(-0.0821216 0.068381 0)
(-0.0965797 0.0406603 2.69347e-21)
(-0.15018 -0.0106019 5.67789e-22)
(-0.0119629 -0.182395 2.513e-21)
(-0.0113698 -0.16762 0)
(0.000252554 -0.135177 -4.01939e-23)
(-0.0072875 -0.159293 0)
(-0.00351161 -0.186138 0)
(-0.00453418 -0.102101 -3.52124e-21)
(-0.00281885 -0.132143 3.21295e-21)
(-0.0441244 0.0167196 0)
(0.124829 0.0123442 -1.38806e-21)
(0.375688 0.00255079 0)
(-0.182731 0.00432353 -4.68442e-22)
(-0.153118 0.00878666 1.1813e-23)
(-0.142648 0.00537151 -2.50513e-22)
(-0.172592 0.00599822 1.30656e-22)
(-0.0042576 0.0314647 5.48587e-21)
(-0.0320756 0.0259319 -1.03255e-21)
(-0.0693659 0.0123295 -2.1179e-21)
(-0.0823747 -0.0142281 0)
(-0.0825937 -0.00359409 0)
(0.000298189 0.00911778 1.72035e-21)
(-2.28534e-05 0.022991 -6.50309e-21)
(-0.0634979 -0.00552292 0)
(0.00202328 -0.175054 -5.4429e-22)
(0.000380846 -0.134967 3.98485e-23)
(-0.00164374 -0.179634 -4.63204e-21)
(0.00125197 -0.187525 4.30828e-21)
(-0.00146796 -0.0997903 0)
(0.00022944 -0.143155 -5.3596e-22)
(0.0990938 -0.00268346 0)
(0.363313 -0.00154231 0)
(-0.166797 -0.00193058 4.275e-22)
(-0.0927932 -0.00224107 -3.64908e-22)
(-0.148394 0.000225629 3.31486e-22)
(-0.182006 0.00674319 -5.56598e-22)
(-0.0244857 -0.00084901 0)
(0.131224 -0.186402 -5.76534e-21)
(-0.150136 -0.226962 9.82751e-21)
(-0.000619299 -0.173005 1.67242e-22)
(-0.00342862 -0.137475 0)
(0.000955 -0.179221 3.94844e-21)
(-0.000664194 -0.186346 -2.8781e-21)
(0.000625341 -0.0970356 0)
(0.00241496 -0.148324 -1.02843e-21)
(0.0909829 -0.000121592 -3.84593e-23)
(0.357842 -0.00326452 -2.09551e-21)
(-0.18902 -0.00314947 -2.14093e-21)
(-0.101892 -0.000177884 -6.25799e-22)
(-0.15164 0.00168138 5.32879e-22)
(-0.189758 -0.00175636 0)
(0.267642 -0.0533257 -6.96175e-21)
(0.0263785 -0.16661 -6.40575e-21)
(-0.0150104 -0.173319 0)
(-0.0192392 -0.143807 0)
(0.131368 -0.00836386 -3.06328e-21)
(0.383165 -0.0157358 2.61088e-21)
(0.128939 -0.059424 1.15832e-20)
(-0.0540533 -0.212811 0)
(-0.112194 -0.219812 9.19461e-21)
(-0.0350482 -0.25075 1.60225e-21)
(-0.147575 -0.306097 -2.59642e-21)
(-0.0665397 -0.195538 -1.80332e-23)
(-0.0153804 -0.183526 -3.8379e-21)
(0.000210813 -0.178018 1.65009e-21)
(-0.00636358 -0.180818 6.07318e-21)
(0.00117436 -0.106715 -3.64513e-21)
(0.000157338 -0.145254 2.36684e-21)
(-0.0479139 -0.0138281 2.45578e-21)
(-0.169377 0.00266203 3.73797e-21)
(-0.164807 -0.00565765 -3.37347e-21)
(-0.143883 7.09717e-05 2.48792e-22)
(-0.174274 -0.000250893 0)
(-0.0616501 -0.0658556 -3.84542e-21)
(-0.147682 -0.173658 -2.63116e-21)
(-0.0446726 -0.175866 -6.38868e-21)
(-0.027079 -0.177156 7.5501e-22)
(-0.126358 -0.0150692 0)
(-0.114874 -0.0286262 -9.97056e-22)
(-0.130297 -0.173511 -6.74512e-21)
(-0.088918 -0.178287 8.70804e-21)
(-0.0734735 -0.13109 6.39506e-21)
(-0.051066 -0.140302 0)
(-0.0074472 -0.143667 0)
(-0.0175683 -0.14798 -2.51028e-21)
(-0.00140216 -0.0992771 0)
(-0.00755862 -0.121878 0)
(-0.186492 0.000122198 2.82188e-21)
(-0.177036 -0.00531167 -5.44354e-21)
(-0.136606 0.00214877 -2.61904e-22)
(-0.16841 -0.002955 -1.59655e-21)
(-0.155211 -0.0198214 5.16631e-21)
(-0.147628 -0.0742915 -4.46189e-21)
(-0.0183606 -0.117653 1.505e-21)
(-0.0341585 -0.116476 3.62303e-21)
(-0.173418 0.00442155 4.46162e-21)
(-0.155495 0.00194129 -1.78856e-22)
(-0.0429273 -0.065426 -8.00971e-21)
(-0.0769073 -0.078636 3.85608e-22)
(-0.109515 -0.0626829 1.41767e-21)
(-0.00735665 -0.0840884 0)
(-0.00803343 -0.0946662 -2.74651e-21)
(-0.137208 -0.00455779 -2.16308e-21)
(-0.157895 0.00805651 1.53814e-21)
(-0.0879513 0.0166485 1.42689e-21)
(-0.00658533 -0.0285032 0)
(-0.0340079 -0.0216177 3.56603e-21)
(-0.102336 0.0107546 1.60376e-22)
(-0.0931688 -0.00936229 0)
(0.000154903 -0.00962633 0)
(-0.00109507 -0.0231287 0)
(-0.0611986 0.00665151 -3.74767e-21)
(-0.0225735 0.00111852 2.94956e-21)
)
;

boundaryField
{
    movingWall
    {
        type            fixedValue;
        value           uniform (1 0 0);
    }
    fixedWalls
    {
        type            noSlip;
    }
    frontAndBack
    {
        type            empty;
    }
    defaultFaces
    {
        type            empty;
    }
}


// ************************************************************************* //
