/*--------------------------------*- C++ -*----------------------------------*\
  =========                 |
  \\      /  F ield         | OpenFOAM: The Open Source CFD Toolbox
   \\    /   O peration     | Website:  https://openfoam.org
    \\  /    A nd           | Version:  8
     \\/     M anipulation  |
\*---------------------------------------------------------------------------*/
FoamFile
{
    version     2.0;
    format      ascii;
    class       volScalarField;
    location    "7000";
    object      epsilon;
}
// * * * * * * * * * * * * * * * * * * * * * * * * * * * * * * * * * * * * * //

dimensions      [0 2 -3 0 0 0 0];

internalField   nonuniform List<scalar> 
4109
(
0.117504
0.131182
0.120809
0.129879
0.135524
0.131486
0.13676
0.120696
0.145275
0.145106
0.14318
0.147277
0.120098
0.134656
0.139654
0.150936
0.151596
0.149996
0.152001
0.141144
0.121866
0.130646
0.13148
0.158825
0.160152
0.165331
0.119997
0.133813
0.118579
0.16047
0.149186
0.143184
0.132437
0.13128
0.137933
0.163078
0.164098
0.176548
0.137246
0.119692
0.13447
0.137054
0.122389
0.166565
0.154523
0.552519
0.250011
0.148859
0.143826
0.132372
0.138991
0.170778
0.178449
0.192218
0.150428
0.137664
0.117473
0.135024
0.139348
0.147652
0.143936
0.676844
0.177315
0.163066
0.157185
0.212699
0.553011
0.151025
0.143476
0.143701
0.207829
0.184805
0.236317
0.22742
0.224585
0.155908
0.155574
0.143862
0.134908
0.144252
0.140646
0.143545
0.149306
0.152106
0.182891
0.24854
0.59042
0.80034
0.810641
0.188968
0.184678
0.169517
0.163121
0.157878
0.193881
0.422507
0.151296
0.143933
0.237085
0.220717
0.209838
0.242332
0.248356
0.245916
0.251896
0.165709
0.161306
0.155481
0.141095
0.154489
0.208233
0.147194
0.151785
0.154731
0.161319
0.818567
0.303663
0.400214
0.567046
0.895661
0.846826
0.252072
0.206331
0.194385
0.178849
0.172037
0.165669
0.157406
0.429741
0.162586
0.154745
0.241512
0.227104
0.260361
0.251883
0.27434
0.256568
0.172099
0.169814
0.169531
0.155146
0.161003
0.211021
0.15219
0.15755
0.162786
0.166815
0.798223
0.474582
0.916013
0.599374
0.925869
0.285137
0.214462
0.20367
0.186773
0.179151
0.17249
0.166066
0.159857
0.415404
0.15447
0.235695
0.221824
0.269644
0.248224
0.279166
0.283649
0.300085
0.182715
0.178211
0.176991
0.163907
0.169622
0.226705
0.159219
0.165602
0.168919
0.176766
0.556241
0.972573
0.580153
1.00942
0.984382
0.313845
0.197387
0.207055
0.188714
0.172229
0.180802
0.170738
0.473939
0.163199
0.219138
0.230588
0.263616
0.24429
0.278158
0.297222
0.296313
0.338056
0.190362
0.188165
0.189468
0.177771
0.171346
0.228529
0.165791
0.171663
0.177975
0.183811
0.602766
1.05461
1.07879
0.666613
1.09683
0.310126
0.198463
0.210152
0.184839
0.178471
0.496474
0.169888
0.221467
0.234392
0.257909
0.24768
0.273648
0.29623
0.311801
0.335234
0.375038
0.20244
0.196971
0.196618
0.189094
0.178949
0.241291
0.179824
0.172462
0.211962
0.185977
0.194914
0.590892
1.15064
0.69801
1.1933
1.19328
0.329622
0.200876
0.208848
0.190314
0.547518
0.171658
0.224067
0.234165
0.26209
0.250337
0.277485
0.289834
0.315064
0.338442
0.362229
0.422392
0.213114
0.205307
0.202639
0.222023
0.181141
0.245368
0.184168
0.225182
0.203815
0.196864
1.24211
0.61531
1.29072
0.766523
1.32883
0.338306
3.64985
0.202997
0.21522
0.577129
0.179056
0.223643
0.237527
0.26306
0.249462
0.279754
0.293522
0.308307
0.33749
0.364643
0.402126
0.412958
0.47906
0.210092
0.219832
0.203516
0.234342
0.236736
0.186845
0.255207
0.199698
0.216296
0.207086
0.639333
1.36596
1.41541
0.77032
1.44497
0.353867
4.40738
3.87582
4.60697
3.18424
3.9592
2.78974
0.751971
0.187954
0.23217
0.238453
0.25413
0.252444
0.267529
0.280579
0.29401
0.311392
0.42399
0.327688
0.361238
0.397176
0.478459
0.541667
0.510046
0.617859
0.231726
0.225023
0.247544
0.251646
0.227122
0.19941
0.271784
0.207346
0.219421
0.69882
1.52077
1.50325
0.356995
9.80429
7.17486
4.72242
3.39321
4.36372
5.47821
0.724371
0.718617
0.810411
3.02079
2.61985
2.79068
2.54537
2.91514
1.38693
0.218517
0.306342
0.2874
0.273888
0.464694
0.284918
0.29562
0.311873
0.330418
0.42252
0.349641
0.387942
0.533201
0.479672
0.589861
0.576224
0.721148
0.806613
0.248664
0.251309
0.265023
0.264859
0.241316
0.231316
0.209936
0.269347
0.223009
0.789745
1.81164
10.1273
7.33936
3.60962
4.35717
5.52844
0.787731
0.840137
0.920336
0.843768
0.898342
2.13266
2.32175
2.24651
2.52334
2.99091
2.06851
1.18158
0.318391
0.328626
0.29229
0.454859
0.47188
0.310683
0.308336
0.329142
0.351503
0.414618
0.373177
0.542322
0.509188
0.595643
0.647278
0.729696
0.766512
0.276542
0.265319
0.232793
0.293498
0.281782
0.254491
0.245423
0.319437
0.236784
0.224545
0.330594
0.86778
9.84249
11.2001
7.49129
3.58597
4.45296
5.70717
0.830641
1.00247
1.18956
0.939052
1.02763
1.82949
1.47208
0.933202
1.00112
1.9927
2.18588
2.5446
2.95255
2.48311
2.13095
0.605503
0.34535
0.325214
0.44396
0.473825
0.325193
0.328341
0.349737
0.374207
0.400022
0.553597
0.513289
0.605108
0.660802
0.698565
0.758244
0.302253
0.319378
0.295074
0.248683
0.249057
0.27097
0.286961
0.259836
0.334763
0.307203
1.72595
2.49473
0.241298
0.235143
10.2517
7.29755
7.04484
11.4057
7.76151
3.63366
4.54875
5.91913
0.912761
0.805851
1.07055
1.20277
1.13502
1.4044
1.66362
1.0369
1.12286
1.90799
2.14635
2.52699
3.06518
3.27095
3.08735
3.87737
0.641798
0.409774
0.348314
0.429296
0.462463
0.350669
0.34667
0.370389
0.400717
0.498965
0.540404
0.586574
0.639251
0.693383
0.739233
0.773232
0.33738
0.335561
0.262453
0.261986
0.276741
0.293221
0.312759
0.358075
0.32708
0.264369
0.361012
0.458463
10.664
7.53974
6.47381
4.31497
4.3917
11.5843
7.60072
3.7155
4.14697
4.95762
1.00671
0.876719
0.838714
1.61549
1.25986
1.35025
1.15896
1.24828
1.86929
2.11717
2.63669
3.13222
0.944831
3.87769
3.92181
4.47752
0.854881
0.455424
0.386792
0.429776
0.462374
0.371141
0.373309
0.398423
0.498412
0.539005
0.584337
0.635693
0.680297
0.713926
0.770654
0.78289
0.376176
0.37787
0.283053
0.282784
0.298944
0.315768
0.331774
0.385257
0.349436
0.332951
0.283578
0.302669
10.4477
3.29171
6.16611
5.39711
4.35535
11.7404
7.70914
3.51002
4.33029
5.22201
6.51452
1.11569
0.862337
0.976293
0.867314
1.29764
1.56127
1.41971
1.87386
2.27455
2.71537
2.99761
0.994412
4.63667
4.81241
5.59012
0.965451
0.532907
0.42197
0.46009
0.426059
0.396673
0.401669
0.494671
0.535264
0.627015
0.578133
0.66774
0.709718
0.711793
0.759966
0.823953
0.421507
0.407905
0.417834
0.304297
0.303464
0.330321
0.349412
0.372167
0.364646
0.306066
0.349313
10.9353
7.30173
2.47821
2.7169
4.9653
4.35675
3.59392
8.10778
11.6782
3.65402
4.28726
5.04612
6.20935
1.23862
0.892839
1.06792
0.919244
0.979825
1.46353
1.57339
1.37164
1.94505
2.32959
2.63831
3.13335
1.474
5.55481
5.89797
6.51501
1.20996
0.611293
0.444862
0.463035
0.42899
0.429549
0.502869
0.534686
0.617387
0.580809
0.68116
0.711791
0.749129
0.798986
0.857106
0.474619
0.456775
0.45167
0.400129
0.330298
0.332456
0.351184
0.365318
0.38138
0.330768
0.412157
11.7556
8.623
6.4432
5.50839
1.92308
2.16862
2.59469
4.1624
3.56008
3.08902
1.56117
8.09184
11.4655
11.6747
3.6375
4.28798
5.73851
5.04662
1.19567
0.94388
1.04419
0.973716
1.51542
1.70893
1.33248
3.13816
2.00076
2.24162
2.7031
1.59781
6.75845
7.27245
8.13406
0.473559
1.45154
0.632425
0.466601
0.466558
0.55402
0.531742
0.636343
0.643754
0.598497
0.691277
0.752921
0.811264
0.537123
0.500036
0.485586
0.428655
0.414895
0.351334
0.347283
0.371955
0.394284
0.355365
0.440424
0.617021
0.702066
8.36457
6.67936
5.12869
4.42389
1.77569
2.19127
2.62916
3.42764
2.94203
1.4646
1.24731
1.07337
0.860721
0.799973
10.8309
7.80641
10.8555
8.13343
3.16462
3.67723
4.21667
5.60405
1.17294
0.996242
1.0563
1.72703
1.52246
1.33607
1.26962
2.69359
2.68788
1.97713
2.33248
1.95459
9.22385
8.37713
9.37255
0.666788
1.56182
0.501309
0.557496
0.639103
0.583287
0.686661
0.732792
0.786204
0.541475
0.520549
0.462879
0.440202
0.418149
0.380345
0.375293
0.39912
0.513278
0.384166
0.741298
0.619381
0.680215
6.409
5.41963
4.19619
3.58392
1.79217
2.24733
2.47653
2.82513
1.57428
1.23732
1.30377
0.760503
1.04561
0.825783
0.900504
8.01285
6.67113
6.2525
5.15083
3.0025
3.52707
4.60312
2.63039
1.13366
1.0573
1.6454
1.40684
1.532
1.36024
1.22197
2.36244
2.40651
2.00183
1.80417
11.3033
10.5291
11.3655
1.07343
1.75278
0.552536
0.322326
0.635518
0.70053
0.759614
0.561334
0.49899
0.479269
0.452833
0.426529
0.403017
0.39636
0.462803
0.401892
0.691125
0.616146
5.04642
5.20355
4.42532
3.43665
2.91191
1.92208
2.12035
2.36741
1.64355
1.45871
1.28052
0.768993
0.819099
1.128
0.891278
0.984568
5.79421
5.17641
5.13595
4.29851
2.32756
3.11933
3.40962
2.69069
4.32648
1.1215
1.72947
1.56773
1.47289
1.30098
1.19121
1.80687
1.99252
2.03127
1.8499
15.1824
13.6399
15.6492
3.07131
0.617992
0.902173
0.681362
0.743258
0.54147
0.513411
0.483969
0.459919
0.433655
0.429523
0.471774
0.4378
0.67673
0.587682
4.25038
4.32604
3.54113
2.79965
2.41798
1.82953
2.01411
1.58802
1.39072
1.23524
0.73914
0.801274
1.10345
0.887542
0.980629
4.27265
4.13339
3.34532
1.89332
2.0972
2.38375
2.6044
3.55148
1.50034
1.37258
1.25155
1.64509
1.58003
1.79791
2.64482
20.8798
27.3963
9.4554
0.67784
1.1164
0.739183
0.560257
0.525762
0.4952
0.462852
0.458289
0.506366
0.641492
0.605448
3.51507
3.45936
2.81686
2.32353
2.0518
1.73467
1.51063
1.32712
1.17599
0.701314
0.770843
1.04884
0.849662
0.94195
3.40615
3.40176
2.78919
1.95536
2.1278
2.30828
1.81823
2.82758
1.41158
1.30882
1.5097
1.54038
1.67697
4.70905
46.1649
45.4962
21.3384
0.754634
2.34224
0.566036
0.536535
0.494038
0.502083
0.618616
0.66322
0.617523
2.83005
2.81309
2.33797
1.98757
1.76637
1.53934
1.35298
1.20186
0.722681
0.795328
1.07356
0.873576
0.967579
2.78428
2.77102
2.32925
1.85494
1.98324
1.68678
2.347
1.35724
1.43021
1.45601
1.52722
1314.36
10.0957
77.9443
81.0394
51.353
1482.21
0.57955
0.541243
0.556469
0.553667
0.848906
0.669739
0.63024
2.30199
2.32658
1.99986
1.72339
1.50583
1.33252
1.18733
0.734069
0.800822
1.07025
0.880699
0.966507
2.21336
2.23581
1.98269
1.68309
1.53066
1.95586
2.00959
1105.25
1207.46
23.4043
139.921
140.009
1582.05
1368.85
1951.64
0.594757
0.541554
0.613934
0.610659
1.41867
0.685711
0.625129
2.01128
2.00478
1.7267
1.50891
1.33495
1.1959
0.749651
0.819722
1.08029
0.982876
0.896165
1.97308
1.75619
1.5274
1.74006
1.81119
1.77997
764.689
975.82
1147.83
53.4523
1532.98
1304.29
1833.47
1961.89
0.621452
0.617007
0.683124
3.05475
0.69939
0.634822
1.67087
1.68281
1.48697
1.32162
1.19071
0.750479
0.83217
1.08565
0.991898
0.909469
1.76057
1.57274
1.623
1.65276
1.63803
1.61587
713.308
611.641
896.771
1138.6
1896.91
1679.09
1524.28
1292.51
1911.21
1981.17
0.660354
0.681193
0.756342
0.68186
0.700275
0.740029
1.54804
1.37306
1.2523
1.13419
0.810669
0.822034
1.06372
0.964323
0.918442
1.57055
1.5248
1.52905
1.50798
1.48163
557.666
507.439
863.986
1195.07
2190.79
1964
1473.47
1725.34
1572.52
1349.26
2039.14
2022.68
0.695938
0.723832
0.739429
0.761952
0.822643
1.45043
1.33285
1.23495
1.13748
0.853108
0.878209
1.06159
0.990503
0.932851
1.42033
1.38876
1.34338
2452.44
445.17
440.971
884.165
1369.62
2212.79
2136.61
1260.1
1496
1817.22
1713.64
1527.98
2269.16
2098.72
0.726033
0.752586
0.787694
0.820107
1.32131
1.27177
1.20442
1.1331
0.86598
0.909179
1.06607
1.00828
0.953807
2902.6
2422.62
366.232
407.044
990.192
1881.69
2277.27
2424.08
1155.69
1260.37
1550.01
1968.73
2040.44
2051.39
2678.38
2237.04
3213
3027.76
2397.84
313.914
408.409
1333.73
4454.29
2421.82
2927.77
988.981
1163.25
1290.36
1654.63
2223.97
2895.77
4637.88
3463.54
2480.3
3244.1
3589.21
3080.89
2413.98
292.312
487.485
3078.94
2704.63
3774.83
876.829
999.831
1193.13
1365.71
1844.83
2687.29
6776.01
5315.46
3167.46
3689.57
3997.24
3097.69
2525.72
321.79
958.512
3286.68
5362.97
596.718
869.488
1048.55
1261.85
1514.89
2208.02
3718.89
12568.6
2698.12
3451.03
4263.67
4410.87
3167.31
2828.43
573.53
4696.83
129.266
536.959
868.414
1148.96
1397.41
1808.08
3042.4
7544.5
2973.88
3096.8
3751.2
5007.38
4811.52
3402.94
3637.18
10117.4
83.719
121.428
493.341
873.544
1332.66
1665.92
2487.23
6174.32
2505.76
3424.57
3574.07
4141.13
6028.76
5286.05
4125.83
6826.06
91.177
88.1436
117.562
463.029
887.811
1679.6
2289.44
4978.24
1309.57
3034.97
4004.44
4165.77
4653.06
7393.67
6188.17
7092.77
97.2221
99.1889
95.7631
118.764
447.132
922.794
2460.24
4556.35
1076.41
1491.81
3854.04
4793.14
4947.95
5462.06
9132.86
9414.27
97.6957
105.687
110.739
107.945
128.77
449.925
1032.39
5230.79
930.358
1174.06
1637.7
5310.14
5935.07
6118.27
7322.13
11237.1
92.3577
106.143
117.892
127.697
127.767
160.264
520.624
1298.73
946.629
1045.07
1286.76
1762.99
8147.67
7697.92
8262.02
9319.04
85.3099
100.282
118.329
135.871
154.153
163.429
249.506
1060.47
1075.03
1057.69
1171.93
1441.98
1879.85
14015.1
10458.5
14413.8
128.45
89.7419
111.809
136.295
164.032
200.792
246.38
662.614
1335.4
1176.15
1182.42
1334.47
1686.35
2091.18
27311.9
13187
577.39
121.149
97.4213
128.803
164.449
213.974
307.769
600.128
2462.85
1550.76
1292.18
1344.25
1574.97
2119.91
3108.9
66789.5
901.623
523.252
117.721
109.703
155.408
214.402
328.798
763.845
2877.9
2844.81
1773.86
1450.19
1585.35
1987.82
3054.33
8275.3
1000.8
888.344
481.747
119.351
129.693
202.409
329.338
817.147
2613.36
3270.65
3267.36
2056.9
1696.77
2001.09
2867.84
6049.47
1174.34
1015.66
885.549
451.927
129.98
165.653
310.25
817.217
3251.99
3012.25
3738.06
3767.5
2482.27
2134.88
2889.96
5718.08
1268.88
1185.57
1069.46
890.709
436.057
162.057
249.013
767.08
3350.35
3576.5
3499.01
4304.07
4382.74
3215.51
3089.75
5793.56
1486.15
1271.52
1220.46
1175.99
905.934
438.777
251.673
601.851
3292.92
3821.07
3885.78
4083.01
5106.91
5176.95
4695.36
6239.34
1705.8
1513.67
1305.3
1295.62
1367.73
944.004
509.382
662.151
2894.57
3690.8
4438.66
4223.27
4845.67
6498.04
6507.85
9143.47
2081.49
1891.1
1763.54
1573.71
1385.69
1439.93
1727.38
1057.77
1047.99
2435.24
3005.19
4099.72
5264.64
4648.48
5859.51
9327.94
12222.7
1696.76
2082.9
1987.28
1868.39
1684.66
1541.78
1722.5
2538.56
1340.86
2175.8
2404.86
3048.91
4477.43
6379.92
5552.57
7991.83
15291.2
1849.58
1532.44
1655.46
2103.71
2130.32
2032.89
1882.53
1847.47
2376.74
5421.36
2185.37
2378.34
3073.44
4817.78
7787.11
7740.06
18038.7
1913.83
767.537
1437.72
1435.29
1655.97
2149.72
2379.89
2302.84
2257.92
2552.9
4759.79
851.722
1214.35
2240.54
2391.83
3148.25
5224.6
9545.54
10966.4
2072.78
601.018
1323.42
1380.9
1716.64
2234.07
2818.09
2786.79
3117.41
5150.42
678.512
1084.53
2377.3
2499.55
3381.87
6144.69
11967.9
2346.99
480.666
1261.04
1379.18
1878.51
2385.28
3654.06
3856.44
6353.78
563.603
1004.22
2650.57
2796.18
4103.36
9653.43
2831.02
396.111
1254.57
1449.61
2243.16
2651.39
5631.77
7835.21
489.626
972.72
3214.89
3592.69
7037.63
3662.66
339.6
1321.42
1653.67
3195.09
13420.7
450.532
999.616
4584.38
6727.86
5229.9
315.257
1521.41
2238.32
7538.26
448.493
1121.96
9844.55
343.175
2101.52
5136.66
527.161
1509.41
610.161
5000.03
1009.19
3464.63
0.906033
0.866226
0.89096
0.890868
0.920149
0.916338
0.929824
0.929214
0.947144
0.833829
0.854733
0.862937
0.886647
0.893353
0.916507
0.926066
1.00138
1.02547
1.04917
1.08568
1.11304
0.94625
0.958976
0.945337
0.94632
0.954565
0.949059
0.973687
0.965994
0.992033
1.15614
1.17652
0.806158
0.828108
0.839628
0.861549
0.873064
0.89292
0.909481
0.92931
0.945699
0.964031
0.983369
1.00304
1.03239
1.05968
1.10861
1.13624
1.22587
1.24065
0.976858
0.991811
1.0114
1.0275
1.05184
1.07373
1.11433
0.972268
0.97675
0.974676
0.97364
0.992967
0.981214
1.02188
1.00874
1.04181
1.11413
1.14405
1.31075
1.33659
1.22356
1.21775
1.29944
0.786538
0.805917
0.822442
0.841351
0.858986
0.8776
0.897735
0.915275
0.943077
0.963689
0.988915
1.00965
1.07599
1.09994
1.14598
1.17231
1.24333
1.26777
1.34949
1.38599
1.48047
1.49371
1.6282
0.999363
1.00867
1.02782
1.04396
1.06906
0.997958
0.999805
1.00858
1.00126
1.03386
1.01938
1.09376
1.06965
1.05299
1.07844
1.13815
1.14208
1.22529
1.25109
1.57238
1.36598
1.4879
1.3167
1.36257
0.775559
0.793399
0.813489
0.832503
0.853477
0.871482
0.894057
0.91437
0.935724
0.960919
0.991214
1.03255
1.16214
1.10167
1.22024
1.2743
1.3432
1.3651
1.45059
1.67531
1.72229
1.74175
2.01168
2.04389
1.94743
2.09109
2.09393
2.81947
1.02165
1.03131
1.04777
1.06375
1.14623
1.118
1.02625
1.02336
1.04387
1.03341
1.09658
1.07438
1.05995
1.19813
1.16828
1.08894
1.12848
1.15943
3.65159
3.08232
5.68595
1.23212
1.23552
1.32353
1.35528
1.61095
1.64219
2.30614
1.93632
1.55238
1.61942
0.781317
0.795391
0.820545
0.836546
0.863016
0.879715
0.908906
0.928734
0.991751
0.968431
1.04774
1.07485
1.17093
1.18729
1.36941
1.36477
1.54679
1.55922
1.73386
1.76481
1.94834
22.6248
21.1817
12.5056
2.01051
2.23396
2.40896
2.67729
2.95132
3.10033
3.09268
11.6211
4.93286
1049.75
1328.27
1243.72
1827.81
1541.16
1655.97
1768.16
1837.11
1.04703
1.04918
1.07231
1.0864
1.14232
1.11815
1.05712
1.05061
1.10025
1.08146
1.07018
1.252
1.21984
1.18996
1.16376
1.10705
1.15404
1.25088
1.18743
1.2419
895.023
629.092
109.766
57.5017
25.0552
2.4609
4.0961
5.383
14.9335
1.36617
1.37252
1.38214
1.37208
1.59751
1.62833
1.77929
1.70396
2.29035
961.2
1258.28
1472.72
1399.3
1619.75
1764.68
1798.31
1857.77
1809.49
1760.67
0.872412
0.838513
0.903472
0.891688
0.949811
0.942164
1.00033
0.996271
1.05296
1.05105
1.12054
1.11949
1.23854
1.26904
1.31952
1.33637
1.18016
1.45659
1.26765
1.32062
2.81119
2.80652
3.38527
3.80973
3.72409
58.3234
94.0563
300.49
182.523
56.4282
39.2159
6.33609
8.38326
12.1633
11.4219
36.1488
16.8033
14.8479
390.183
930.604
614.543
675.491
956.062
1183.42
1309.91
1303.29
1608.33
1596.74
1606.11
1519.25
1823.42
1883.24
1918.1
1741.71
1891.02
1811.8
1.07565
1.07597
1.097
1.11303
1.14477
1.12134
1.10973
1.09198
1.08169
1.30377
1.26924
1.23593
1.20897
1.18381
1.1606
1.12812
1.17389
1.18072
1.24275
1.24858
1.31011
1.23971
185.295
492.089
331.482
848.208
525.164
92.2034
198.277
70.5417
23.7488
1.37378
17.4248
3.06338
6.26762
4.30888
1.55246
1.48403
1.66721
1.56302
1.70325
1.6949
1.93182
1.81082
3.07566
949.7
1332.32
846.871
1459.92
1649.84
1260.26
1490.18
1772.32
1777.58
1795.22
1615.38
1797.63
5.16767
1.15616
103.689
29.1516
2.41813
1.18295
1.78555
1.13463
1.48399
1.09097
1.32893
1.29291
1.24765
1.40516
1.37346
1.59937
2.28157
1.47772
2.75683
4.13764
4.22149
7.72024
22.2827
8.6421
9.29304
39.2756
42.6546
14.8736
13.5968
19.0669
19.9652
26.6757
28.3058
122.091
185.457
344.777
238.086
132.753
83.7402
49.3217
54.2171
99.1122
66.7277
73.0138
608.528
480.516
648.934
963.356
854.331
1267.45
1172.36
1578.73
1415.72
1475.72
1678.44
1847.02
1774
1672.82
1856.46
1937.88
1945.46
1.13364
1.10419
1.10202
1.12191
1.14424
1.1257
1.11748
1.14612
1.3585
1.32211
1.28275
1.25211
1.22405
1.19715
1.1811
1.1587
1.40807
1.35052
1.40941
1.46357
1.42428
1.45733
1.19874
1.19446
1.20044
1.2254
1.39018
1.29793
1.33823
1.25493
505.802
397.251
234.306
35.6327
172.598
95.9804
1.4763
1.76227
1.67724
44.9681
4.37394
12.4956
7.73585
1.97936
1.90014
2.08122
2.00789
2.40809
2.0913
5.1378
465.905
1040.9
1313.68
901.506
645.929
1473.32
1207.05
1517.19
991.497
1797.2
1841.36
1923.68
1805.39
1664.93
222.259
246.268
58.9995
11.5495
252.694
218.874
30.4812
11.1148
21.3276
6.39172
13.4829
4.235
9.35155
2.3634
4.43143
10.1244
30.3224
18.4042
37.2814
20.0336
26.5364
65.0477
101.76
111.539
56.9114
53.9333
120.625
137.425
62.5539
70.1262
95.1474
96.2238
126.464
103.599
402.479
215.699
290.876
268.993
210.886
189.663
238.943
141.094
220.595
715.484
527.283
1197.81
937.155
1045.72
1487.8
1333.67
1675.54
1590.69
1779.58
1720.72
1.43958
1.40581
1.131
1.14765
1.15067
1.1351
1.13309
1.15819
1.1755
1.32592
1.28102
1.2634
1.22853
1.21538
1.1898
1.18093
1.1628
1.3706
1.33305
1.3531
1.37932
1.33165
1.36311
1.19453
1.20198
1.21556
1.26302
1.51594
1.37726
1.40903
1.30945
91.7165
191.443
291.51
1.63538
1.93472
1.91595
2.30863
2.32237
23.7156
102.275
7.08904
21.6136
2.57261
2.33289
3.96462
2.99707
8.20598
314.405
604.535
518.101
1137.83
1172.05
1387.26
1803.05
1940.49
1029.52
1657.31
2063.75
2001.21
2022.3
1875.11
223.102
198.734
102.353
249.124
231.555
290.712
234.677
151.638
319.669
395.977
225.173
107.486
175.433
66.7568
124.785
50.7552
66.0773
89.0507
64.3378
143.564
110.057
103.05
103.65
113.156
219.9
241.679
259.807
295.845
188.722
181.455
321.588
339.325
206.503
226.58
290.377
283.389
325.097
552.376
456.746
517.319
358.686
458.244
467.919
415.278
503.8
1028.96
827.419
1386.32
1239.65
1594.76
1516.13
1676.71
1611.41
1.48239
1.42109
1.37562
1.34152
1.16717
1.16243
1.16396
1.17336
1.19275
1.29984
1.27312
1.24798
1.22828
1.20858
1.19441
1.18643
1.2969
1.31641
1.27663
1.30357
1.27943
1.30285
1.20886
1.20846
1.23759
1.33281
1.25188
1.21331
1.6801
1.52402
1.5435
1.41804
1.81479
234.377
140.68
2.21037
2.20638
2.57705
2.49929
3.53337
4.04659
2.50865
26.6637
127.28
31.96
9.88544
6.24592
28.532
587.953
389.314
1298.94
1036.67
1762.21
1889.31
2168.27
2181.13
2255.85
2141.82
6.55073
33.2022
256.849
280.876
64.4644
236.929
310.734
252.149
417.656
447.118
256.888
338.183
455.188
436.255
454.394
299.52
376.811
278.168
242.562
228.052
388.344
290.995
400.979
332.482
340.422
455.455
503.142
503.159
531.513
448.669
427.706
379.659
594.367
611.938
472.946
491.755
631.95
628.667
821.032
927.479
805.283
768.261
834.128
745.656
807.068
1283.36
1180.9
1453.38
1385.09
1492.75
1430.59
0.890094
1.61658
1.49827
1.4598
1.41379
1.35988
1.32535
1.29072
1.18196
1.1825
1.18265
1.18471
1.2147
1.26211
1.24562
1.22512
1.21245
1.19958
1.23192
1.25322
1.23239
1.25517
1.24466
1.26405
1.2128
1.27064
1.28545
1.43163
1.25532
1.28171
1.9228
1.60257
1.68126
1.44932
2.26397
2.70454
2.83343
461.881
188.01
2.91639
2.46611
8.87516
4.68006
41.5913
34.9146
23.6307
142.682
231.742
81.1144
1261.11
781.266
1931.96
1711.74
2234.48
2286.6
2499.89
2454.04
3.30023
20.3647
254.26
394.883
41.0565
148.946
413.961
329.862
325.697
438.773
344.946
274.499
602.006
411.683
540.983
576.293
579.226
583.882
581.521
505.468
496.682
622.379
596.192
604.499
625.711
752.497
708.9
724.498
731.23
747.7
717.581
856.396
645.354
696.69
875.838
836.895
790.229
804.221
931.373
930.904
1010.48
1012.37
1199.15
1053.77
1070.37
1307.03
1251.38
1303.5
1258.52
0.781708
0.836747
0.892733
1.51291
1.46198
1.44294
1.40826
1.39154
1.35813
1.31211
1.25437
1.28782
1.38025
1.40434
1.19864
1.18659
1.17922
1.18028
1.21528
1.1953
1.19122
1.2015
1.21511
1.20603
1.22689
1.22245
1.23847
1.22642
1.26096
1.31704
1.40541
1.45525
1.34223
1.8362
2.31379
1.59786
1.90954
2.57682
3.71535
2.8302
3.94341
7.57007
1.93752
913.563
535.021
38.1288
14.8036
152.569
87.6997
402.104
712.207
301.38
1810.74
1576.76
2277.1
2393.99
2706.39
2717.5
2.41758
12.7983
215.285
451.593
24.6254
97.8939
464.623
483.323
258.628
289.764
473.277
335.313
544.253
478.395
267.306
344.049
668.427
503.116
566.542
538.401
624.397
679.391
678.019
631.811
661.318
719.86
704.615
707.876
857.036
807.026
771.088
755.737
704.794
847.188
869.547
953.216
892.93
901.887
974.605
988.386
956.828
969.465
999.578
1016.49
1188.98
1142.04
1053.67
1180.34
1155.57
0.76999
0.791129
0.822788
0.890111
0.933314
1.44638
1.36857
1.35775
1.33361
1.33292
1.23058
1.2768
1.25671
1.3049
1.33148
1.31987
1.30181
1.32665
1.28939
1.28725
1.24438
1.2459
1.23092
1.19013
1.18803
1.18902
1.19275
1.22315
1.18834
1.19731
1.20446
1.21103
1.20837
1.22415
1.22852
1.26088
1.35456
1.29682
1.42352
1.58589
1.53349
1.68577
2.19886
2.73694
1.90711
2.29962
3.27598
5.01259
15.2262
10.8982
9.41844
21.6119
76.1882
66.3821
1702.1
1158.82
336.124
313.126
800.45
1244.66
767.688
2235.85
2431.25
2772.79
2943.67
1.95146
7.66993
164.002
428.394
14.3004
57.5673
439.837
556.654
313.471
255.459
544.102
424.445
359.261
293.951
242.548
246.844
564.098
543.041
306.524
428.573
351.341
433.524
542.377
627.265
607.725
596.793
558.857
567.553
511.554
708.483
705.163
591.54
515.913
543.269
530.357
719.321
766.913
974.438
1007.58
1004.38
985.645
990.901
1011.51
1029.62
987.084
994.244
1.31735
0.778938
0.786107
0.806131
0.833598
0.86816
0.933412
0.978087
0.801626
0.799773
0.834666
0.826194
0.874257
0.857854
1.20023
1.21132
1.15692
1.16987
1.10959
1.12645
1.05899
1.08127
0.918381
0.896824
0.96439
0.93861
1.01128
1.03398
0.984116
1.29945
1.28969
1.27295
1.28008
1.24858
1.23758
1.26401
1.25785
1.25578
1.24176
1.26506
1.21756
1.22071
1.17621
1.18212
1.22964
1.19309
1.2096
1.1915
1.20774
1.21014
1.20639
1.21315
1.21316
1.22396
1.23405
1.23272
1.23215
1.22901
1.32605
1.25575
1.48617
1.37535
1.56934
1.83305
1.72502
2.04439
2.70205
3.87072
2.41693
3.06809
4.506
13.5948
162.986
101.081
194.149
42.8408
177.328
459.2
571.016
2268.26
1832.21
1136.7
1839.53
1212.05
2813.39
2895.78
1.53829
4.90299
413.393
102.342
196.365
8.68114
34.823
563.437
596.211
367.38
280.734
588.947
457.158
638.758
238.56
235.135
227.401
422.474
366.639
215.417
255.26
283.481
236.706
375.725
438.199
399.176
355.202
375.459
329.601
388.104
315.684
400.748
254.025
337.241
237.571
321.368
552.365
990.568
950.072
683.038
938.691
895.086
1.23524
0.974172
1.01831
0.812888
0.82133
0.846438
0.879309
0.917907
0.831013
0.833074
0.857509
0.856418
0.89132
0.885064
1.13584
1.1485
1.0966
1.11239
1.05475
1.07228
1.01248
1.03276
0.93121
0.918578
0.970574
0.9932
0.954546
1.24802
1.23879
1.22896
1.24432
1.23655
1.20137
1.20682
1.19661
1.21977
1.16453
1.17085
1.12433
1.13403
1.23046
1.23153
1.23088
1.24263
1.23527
1.24233
1.24467
1.23724
1.24773
1.26794
1.25057
1.25271
1.2485
1.37803
1.30121
1.31057
1.63727
1.45899
1.74672
2.2048
2.08207
2.58831
3.54843
7.7089
3.17264
4.95989
9.88457
73.7894
582.856
736.033
513.345
752.773
198.655
631.037
1116.13
1423.63
1926.61
2962.7
2283.44
1.38721
2.1981
4.31954
234.583
483.924
58.2022
143.046
14.7377
543.083
662.115
344.314
251.183
633.888
390.951
665.249
623.291
511.581
508.014
197.481
214.837
283.713
247.453
179.391
191.873
201.322
179.885
237.738
264.179
251.5
223.479
214.547
199.23
170.661
160.185
142.631
124.367
166.023
118.624
708.492
194.784
506.655
2929.53
1.02202
1.09649
0.926408
0.985056
0.848523
0.863866
0.894176
0.863326
0.866575
0.88386
0.885387
0.911749
0.909907
1.08792
1.10111
1.05078
1.06884
1.01263
1.03248
0.977511
0.999196
0.945001
0.967255
0.936251
1.20964
1.2082
1.20322
1.19717
1.15771
1.17084
1.16293
1.19195
1.1228
1.13472
1.08865
1.10001
1.2324
1.21777
1.25801
1.24805
1.32397
1.29714
1.34022
1.32894
1.28115
1.29547
1.34735
1.30343
1.27892
1.37904
1.29803
1.29841
1.52655
1.51658
1.84257
1.82013
2.61142
2.46471
3.96025
2.98466
5.63337
18.1478
4.4273
8.09223
52.1505
252.516
502.112
1296.55
1412.2
1180.59
1228.63
1610.17
1972.98
2232.11
29.3325
1.17761
1.21736
2.02386
2.71351
8.89898
376.857
91.6137
184.861
625.164
436.684
230.087
299.209
634.163
654.342
319.826
410.402
664.103
607.616
527.13
419.926
171.517
194.328
187.612
178.238
153.367
157.354
152.089
152.944
156.301
166.765
118.73
122.028
95.745
96.1643
85.7717
82.9669
112.607
84.2607
1.00091
1.06027
0.890938
0.912786
0.956157
0.897285
0.913231
0.913509
0.916998
0.933376
0.934151
1.05517
1.07046
1.01967
1.04267
0.989868
1.01106
0.961252
0.983511
0.958143
1.20658
1.18318
1.18136
1.18426
1.12978
1.14634
1.17927
1.14623
1.09631
1.11461
1.06783
1.08325
1.2646
1.24106
1.2402
1.30485
1.27987
1.41873
1.40565
1.39382
1.42675
1.54988
1.49883
1.50322
1.465
1.43855
1.37207
1.3384
1.51338
1.45125
1.56272
2.04193
1.79848
3.35592
3.47605
2.42686
3.27247
5.42436
5.83233
23.8146
73.2632
19.4938
202.043
414.465
744.336
1415.33
1954.91
1970.2
2306.1
8029.91
136.888
1.10131
17.5262
45.842
1.21934
1.29965
1.38244
2.22843
3.11578
7.98676
372.777
258.46
642.175
584.206
200.732
254.094
699.551
679.928
276.613
367.971
641.893
560.204
427.566
146.727
170.523
125.895
129.959
129.495
119.651
103.216
106.03
86.0006
89.721
80.5172
81.7655
79.4785
82.2335
1.05173
0.934801
0.980295
1.0149
1.02585
0.932365
0.953107
0.943928
0.951777
0.957945
0.959412
1.03391
1.05669
1.00774
1.03023
0.981681
1.00503
0.980609
1.06156
1.17894
1.17788
1.18504
1.16164
1.13986
1.11594
1.18842
1.11465
1.09515
1.09131
1.25953
1.22234
1.28788
1.32949
1.33366
1.41443
1.40368
1.55759
1.59891
1.6568
1.63116
1.85344
1.84105
1.781
1.59394
1.55447
1.75557
1.71625
1.89081
1.87976
2.63444
2.54352
6.41647
6.59688
6.16222
4.66756
35.5635
26.1112
263.454
163.687
596.238
766.096
1117.46
1992.57
272.187
80.8673
134.76
1.25982
1.16957
12.4236
38.5868
1.3431
1.61874
2.1965
2.65162
7.94826
550.794
429.703
715.203
694.819
176.609
232.076
728.933
653.231
532.433
418.045
274.615
125.224
145.492
97.8998
107.162
104.578
86.4634
90.1929
84.3635
84.9538
85.9993
87.6838
1.11762
1.18032
0.983503
0.998013
1.07047
1.1395
0.976433
0.990854
0.977257
0.99
0.989298
0.995707
1.05683
1.03962
1.01758
1.03431
1.01199
1.25356
1.09514
1.0789
1.07861
1.16921
1.17911
1.14511
1.23453
1.18693
1.15803
1.12809
1.34395
1.33109
1.42496
1.39406
1.51261
1.50523
1.72163
1.67198
1.92257
2.0211
2.51863
2.33846
2.21492
1.99725
1.91836
2.09204
2.08839
2.42249
2.49353
2.4651
5.32742
4.23324
38.6445
12.8349
17.6226
10.2527
285.385
155.766
750.212
519.751
1063.93
942.711
417.511
191.974
282.798
62.9818
124.04
1.43387
1.27443
11.8891
32.5116
2.6083
1.53136
5.39041
676.732
581.293
757.688
774.654
237.926
173.91
144.462
736.603
544.122
440.064
309.736
254.375
102.06
116.777
87.1466
91.0275
85.7331
85.5738
90.9554
89.4931
1.21384
1.32692
1.0265
1.08614
1.13814
1.25541
1.0248
1.05567
1.03576
1.01044
1.04906
1.04775
1.08203
1.05603
1.07413
1.33076
1.28697
1.14469
1.12967
1.14664
1.13446
1.19877
1.26817
1.18049
1.20522
1.17384
1.52138
1.51477
1.44853
1.66298
1.62407
1.8739
1.99384
1.94512
2.34754
2.28518
4.18486
3.20553
3.31155
2.99728
2.82413
2.7115
3.85158
3.84765
3.74784
3.38702
6.4474
23.1165
16.2699
200.457
89.9466
93.8042
586.278
408.952
961.796
783.654
342.148
538.412
645.32
163.791
314.239
48.7635
114.617
1.44873
1.83921
7.57325
31.1466
2.02433
4.61168
794.937
768.122
795.301
775.628
851.034
149.878
174.921
115.955
660.523
503.253
333.854
280.186
171.011
87.3772
97.3377
85.3399
83.4533
91.4542
88.6025
1.36006
1.57553
1.10085
1.1735
1.2517
1.43316
1.11184
1.08631
1.14864
1.14383
1.14106
1.13666
1.12916
1.4267
1.32285
1.19925
1.21053
1.18027
1.2373
1.31066
1.25812
1.31357
1.25232
1.85264
1.7596
1.71777
1.57699
2.28704
2.59518
2.39974
2.61189
2.96529
2.7959
3.89717
3.33246
4.92806
5.43408
5.37327
3.66075
8.25712
8.52003
6.59265
76.06
38.3066
201.44
183.698
507.805
399.032
798.814
707.384
365.517
547.71
677.025
165.415
323.547
45.039
113.801
2.51184
1.82965
7.94386
5.32922
24.0452
672.073
890.04
880.465
889.907
814.773
863.969
702.742