/*--------------------------------*- C++ -*----------------------------------*\
  =========                 |
  \\      /  F ield         | OpenFOAM: The Open Source CFD Toolbox
   \\    /   O peration     | Website:  https://openfoam.org
    \\  /    A nd           | Version:  8
     \\/     M anipulation  |
\*---------------------------------------------------------------------------*/
FoamFile
{
    version     2.0;
    format      ascii;
    class       volScalarField;
    location    "7000";
    object      k;
}
// * * * * * * * * * * * * * * * * * * * * * * * * * * * * * * * * * * * * * //

dimensions      [0 2 -2 0 0 0 0];

internalField   nonuniform List<scalar> 
4109
(
0.0294937
0.0310431
0.029742
0.0310134
0.0317424
0.0314663
0.0319627
0.03015
0.0330108
0.0325449
0.0325708
0.0333186
0.0298507
0.0316902
0.032409
0.0337109
0.0334961
0.03351
0.0338681
0.0325536
0.0299015
0.0313737
0.0314109
0.0345923
0.0346237
0.0350341
0.029591
0.0316265
0.0298769
0.0348557
0.0335083
0.0328086
0.0313972
0.0312891
0.0322226
0.0351654
0.0350532
0.0361743
0.0318925
0.0298499
0.0315742
0.0317704
0.0302768
0.0355139
0.0341216
0.095423
0.0481551
0.0334854
0.0329016
0.031251
0.0322432
0.0358538
0.0366373
0.0379046
0.0336112
0.0317936
0.0293648
0.0318969
0.0323665
0.0331433
0.0328789
0.121498
0.0367272
0.035103
0.034444
0.0418703
0.0870272
0.0337479
0.0327678
0.0324806
0.0393813
0.0373379
0.0425474
0.0413715
0.0411864
0.034154
0.0340538
0.032672
0.0311592
0.0328945
0.0325822
0.0329289
0.0334803
0.033615
0.0384292
0.0452511
0.100146
0.131044
0.13241
0.0379105
0.0375049
0.0358032
0.0351129
0.0345487
0.0382824
0.0665305
0.0337304
0.032564
0.0427003
0.0410166
0.0398859
0.0429949
0.043713
0.0432582
0.0434024
0.0352868
0.034766
0.0339335
0.032108
0.0341318
0.0388394
0.0333685
0.0338817
0.0341181
0.034674
0.138207
0.05274
0.0664474
0.0893274
0.140011
0.137567
0.0432841
0.0397092
0.0385823
0.036838
0.0361073
0.0354206
0.0344098
0.0668944
0.0344532
0.033817
0.043123
0.0417124
0.0448116
0.0440366
0.0455689
0.0443332
0.0359681
0.0356529
0.0355734
0.0337213
0.0348148
0.0399905
0.0339472
0.0345554
0.0350242
0.0352688
0.124859
0.0734858
0.140768
0.0934661
0.143824
0.050397
0.0405643
0.0394826
0.0376553
0.0368704
0.0361797
0.0354487
0.0343828
0.0614655
0.0330332
0.0426388
0.0412535
0.0456743
0.0437598
0.046447
0.0468461
0.0476455
0.0371338
0.0366141
0.03633
0.0345559
0.0358001
0.0412114
0.0347742
0.0354559
0.0356977
0.0363703
0.0857402
0.156848
0.0884526
0.147527
0.147753
0.0511628
0.038783
0.0397309
0.0378945
0.0361473
0.0370802
0.0356146
0.0673005
0.0339075
0.0409557
0.0420216
0.0451887
0.0433404
0.0464316
0.0480914
0.0477229
0.0507254
0.0379035
0.0376176
0.0376499
0.0361746
0.0360476
0.0414331
0.035504
0.0361264
0.0367111
0.0370908
0.0883032
0.15845
0.154117
0.0931404
0.157207
0.0507743
0.0388934
0.0400826
0.0375248
0.0364929
0.0688118
0.0349687
0.0411787
0.0424252
0.0445454
0.0436488
0.0459791
0.0480246
0.0491898
0.051137
0.053491
0.0391801
0.0385743
0.0383979
0.0372315
0.0369125
0.042461
0.0370112
0.0362537
0.0400884
0.0375824
0.0382753
0.0848951
0.166435
0.0967893
0.161531
0.163418
0.0516226
0.0392032
0.0399783
0.037898
0.0722149
0.0353522
0.0415113
0.0424203
0.0449574
0.0439934
0.0463104
0.0473383
0.0495491
0.0514384
0.0529531
0.0570317
0.0401948
0.0393393
0.0387303
0.0410629
0.0372225
0.0428824
0.0374982
0.0414014
0.0391362
0.0387238
0.173588
0.0846196
0.168888
0.100553
0.173545
0.0522208
0.178178
0.0390001
0.0403527
0.0738781
0.0361561
0.0414863
0.042675
0.0450576
0.0440032
0.0466198
0.0476818
0.0489256
0.0514042
0.0533722
0.0562288
0.0566062
0.0607034
0.0393254
0.0407661
0.0390696
0.0422313
0.042458
0.0379198
0.0437155
0.0391343
0.0404115
0.0397641
0.084973
0.181504
0.175593
0.0991178
0.17986
0.0529371
0.192185
0.184677
0.201925
0.165711
0.185362
0.156429
0.0883267
0.0370694
0.0403171
0.0423384
0.0432152
0.0439457
0.045434
0.0467574
0.0477075
0.0491797
0.0578432
0.0504672
0.0532129
0.0559856
0.0613238
0.0648614
0.0632742
0.0693733
0.0416364
0.0411542
0.0434469
0.0438744
0.0414032
0.039233
0.0452222
0.0398999
0.0409902
0.0874913
0.194261
0.181027
0.0528668
0.291805
0.259642
0.201859
0.172462
0.195364
0.221414
0.0754763
0.0759825
0.0811417
0.159978
0.149359
0.151417
0.148046
0.159317
0.150557
0.0387264
0.0452333
0.0452825
0.0459865
0.0606697
0.0470051
0.0479487
0.0493294
0.0507211
0.0577031
0.0522391
0.0552907
0.0651246
0.0617056
0.0681427
0.0678822
0.0765104
0.0808355
0.0429086
0.0436708
0.0450706
0.0450186
0.0427835
0.0421231
0.0402973
0.0449206
0.0414816
0.0915135
0.2184
0.302446
0.258241
0.177273
0.194673
0.221846
0.0795141
0.0814118
0.0869646
0.0826626
0.085638
0.132774
0.139184
0.139541
0.147218
0.160072
0.240379
0.119265
0.0441262
0.0474637
0.0471607
0.0600608
0.0611583
0.0491738
0.0491163
0.0506094
0.0523905
0.05714
0.0540081
0.0657927
0.0637523
0.0692208
0.0721347
0.0768433
0.0786503
0.0456585
0.0449447
0.0423631
0.0475729
0.0465222
0.0439286
0.0434544
0.0497167
0.0429093
0.041791
0.0498498
0.0973054
0.294377
0.324317
0.260233
0.176716
0.19758
0.225335
0.0820357
0.0895074
0.0979474
0.087682
0.0919248
0.122685
0.10927
0.0871524
0.0904033
0.129305
0.137202
0.147586
0.158635
0.257657
0.211403
0.0650565
0.0491778
0.0496754
0.0593154
0.0612047
0.0502859
0.0506704
0.0523627
0.0541236
0.0560351
0.0663927
0.0639626
0.0696927
0.0728347
0.0749041
0.0782349
0.0475254
0.0496678
0.0476117
0.0438727
0.043934
0.0454458
0.0467594
0.0447534
0.0509279
0.0485202
0.169912
0.22205
0.0434372
0.0412713
0.304913
0.257193
0.255513
0.326934
0.265677
0.17739
0.199507
0.230036
0.0861815
0.0808368
0.0934813
0.0994576
0.0972087
0.107371
0.118065
0.0920539
0.0961632
0.127289
0.134558
0.147115
0.162411
0.318253
0.273417
0.31955
0.0649581
0.052452
0.05115
0.0581017
0.0604347
0.0523505
0.0522428
0.0538896
0.0560982
0.0628431
0.0655458
0.0683769
0.0715453
0.07466
0.0773511
0.0791724
0.05073
0.0507087
0.0453181
0.0450457
0.0462647
0.0476403
0.0493121
0.0529671
0.0500676
0.0451153
0.0510817
0.0557013
0.31422
0.260681
0.243283
0.192409
0.191702
0.331402
0.261553
0.17987
0.190323
0.209855
0.0906919
0.0845431
0.0826235
0.117015
0.102104
0.106039
0.0975871
0.101434
0.125649
0.133304
0.149907
0.164021
0.0870268
0.350393
0.329257
0.352843
0.0777368
0.0551277
0.053855
0.0581752
0.0604453
0.0540304
0.0539128
0.0560533
0.0628485
0.0654781
0.0682847
0.0713624
0.0739964
0.0759228
0.0790992
0.0798322
0.0532129
0.054194
0.0469656
0.046971
0.0482613
0.0496738
0.0508926
0.0548004
0.0517955
0.0508242
0.0469148
0.0479013
0.311106
0.166955
0.230566
0.222495
0.192826
0.334703
0.262779
0.175032
0.195203
0.215467
0.241861
0.0956993
0.0839856
0.0893884
0.0840318
0.103494
0.114226
0.108682
0.12574
0.138973
0.152621
0.160453
0.0879211
0.386878
0.371452
0.405549
0.0809154
0.0590835
0.0559648
0.0604228
0.0579751
0.0560392
0.0561969
0.062665
0.0653808
0.0709956
0.06797
0.0733246
0.0758572
0.0759436
0.0787374
0.0821516
0.056871
0.056096
0.0573878
0.0489199
0.04873
0.0508966
0.0524992
0.0535602
0.0530926
0.0487641
0.0504349
0.316673
0.255876
0.144123
0.150031
0.205882
0.197877
0.174268
0.271596
0.331827
0.178324
0.194489
0.211276
0.236283
0.101053
0.0855576
0.0936483
0.0868775
0.0896802
0.110237
0.114315
0.106576
0.127834
0.140724
0.150769
0.164765
0.114243
0.425764
0.426238
0.439774
0.0927099
0.0628318
0.0580679
0.0606819
0.0582863
0.058018
0.0632399
0.0653627
0.0704024
0.0681896
0.0741608
0.0760722
0.0781836
0.0808139
0.0838559
0.0601239
0.0598697
0.0596107
0.0555849
0.0509802
0.0510868
0.0525645
0.0534745
0.0544421
0.0507345
0.054575
0.332287
0.280528
0.242757
0.220205
0.125446
0.133328
0.147221
0.189091
0.178081
0.162938
0.112964
0.273096
0.326601
0.331985
0.177865
0.194801
0.225571
0.211583
0.099395
0.0881184
0.0924775
0.0893791
0.112206
0.119609
0.105151
0.165273
0.130088
0.137725
0.152394
0.113143
0.473128
0.482268
0.505322
0.0599289
0.0994582
0.0645878
0.0611478
0.0607653
0.066695
0.0651656
0.0716397
0.0720623
0.0693426
0.0750062
0.0783799
0.0814371
0.0646472
0.0625503
0.0620266
0.0576443
0.0568251
0.0527315
0.0522501
0.0541413
0.0559709
0.0525819
0.0562088
0.0689927
0.0741641
0.276864
0.245261
0.214982
0.196168
0.120339
0.135278
0.150085
0.170769
0.160963
0.108479
0.0999264
0.0926451
0.0825023
0.0790683
0.316712
0.265745
0.316411
0.271536
0.166291
0.179113
0.192034
0.220965
0.0985759
0.0905874
0.0934058
0.120369
0.112729
0.105503
0.102385
0.152049
0.151899
0.129711
0.141208
0.136832
0.561941
0.529988
0.526448
0.0666826
0.101097
0.0631771
0.0643509
0.0721649
0.0683714
0.0746815
0.0773104
0.0802703
0.0648863
0.0643759
0.059975
0.0586213
0.0573937
0.0549059
0.0544396
0.0561992
0.0607771
0.0546783
0.0761813
0.0696918
0.0729739
0.240222
0.219898
0.193322
0.175527
0.120687
0.137632
0.147274
0.15429
0.11371
0.0996839
0.102293
0.0776867
0.0909418
0.0802071
0.0844412
0.270056
0.251219
0.237679
0.216712
0.160549
0.174382
0.199627
0.149446
0.0968163
0.0934655
0.117314
0.108098
0.113227
0.106384
0.100771
0.142453
0.14388
0.130359
0.109729
0.615738
0.595876
0.585969
0.0835039
0.105978
0.0673842
0.0611352
0.0717545
0.0755889
0.0788887
0.0673075
0.0623843
0.0612879
0.0601526
0.0581436
0.0566673
0.0559435
0.0586202
0.0562867
0.0741112
0.0703321
0.211557
0.215162
0.197772
0.17387
0.157331
0.127472
0.135488
0.140605
0.116536
0.110487
0.102395
0.078811
0.0817585
0.0956394
0.0849412
0.0893226
0.224162
0.214856
0.211726
0.196732
0.140615
0.162656
0.171076
0.151435
0.194424
0.0963315
0.12077
0.11463
0.111044
0.10422
0.0994698
0.123612
0.130032
0.131213
0.115765
0.730927
0.687021
0.732761
0.133452
0.0708369
0.0790713
0.0747131
0.0781517
0.0650864
0.063498
0.0619533
0.0605186
0.0588308
0.0584204
0.0597679
0.058753
0.0741442
0.0679301
0.194005
0.195429
0.176158
0.155573
0.1426
0.125506
0.129216
0.116374
0.108725
0.101897
0.0777907
0.0812213
0.0959921
0.0856277
0.0902391
0.196333
0.189997
0.172801
0.126195
0.132678
0.142127
0.150054
0.175249
0.112162
0.107061
0.101981
0.117577
0.11505
0.122635
0.126142
0.855514
1.17252
0.321294
0.0750219
0.0880378
0.0781133
0.0665036
0.0650156
0.0628517
0.0610205
0.0603374
0.0622003
0.0711032
0.0691893
0.175154
0.173412
0.156032
0.141084
0.130885
0.119481
0.111175
0.103882
0.0975483
0.0744834
0.0782483
0.0918788
0.0823183
0.0868735
0.171672
0.173264
0.15635
0.127904
0.133963
0.140934
0.12328
0.155992
0.108651
0.104317
0.112294
0.113359
0.118378
0.198928
1.66914
1.61401
0.579436
0.0801079
0.122171
0.0672455
0.0655821
0.06271
0.0633863
0.0690076
0.0726282
0.0706923
0.156781
0.156541
0.14143
0.129762
0.12095
0.112623
0.105219
0.0989907
0.0758741
0.079843
0.0932561
0.0837555
0.0884257
0.154182
0.154669
0.142085
0.125249
0.129737
0.118804
0.141626
0.106208
0.10896
0.109898
0.112766
4.05676
0.331402
2.33338
2.47956
1.16872
4.49723
0.0682296
0.0658028
0.0670722
0.0668077
0.0772137
0.0734344
0.0713262
0.139985
0.140841
0.130337
0.120652
0.112196
0.10549
0.0990715
0.0773421
0.0806352
0.0940963
0.08502
0.088967
0.13751
0.137775
0.13022
0.119148
0.112973
0.127975
0.130351
3.2716
3.60131
0.63594
3.59954
3.58062
4.88544
3.96707
6.43357
0.0691853
0.0659336
0.0704062
0.0706094
0.0943122
0.0744883
0.0709335
0.13114
0.130744
0.120701
0.112466
0.105464
0.0995873
0.0780783
0.0817625
0.094423
0.089892
0.0856633
0.129611
0.122246
0.113346
0.120803
0.12326
0.122457
2.21227
2.86052
3.18055
1.20753
4.51396
3.48143
6.19991
6.25915
0.070938
0.0705046
0.07542
0.134884
0.075358
0.07157
0.11844
0.118977
0.11166
0.104913
0.0994222
0.0779734
0.0825346
0.094641
0.0904024
0.0862713
0.122343
0.115437
0.116253
0.11843
0.116892
0.116214
1.93733
1.80944
2.49653
2.78403
3.44202
5.86294
4.10796
3.02868
5.8636
6.05953
0.0731588
0.0746846
0.0803243
0.0744931
0.0754618
0.0775515
0.114041
0.106965
0.102066
0.0968117
0.0814783
0.0818165
0.093736
0.0890156
0.0867671
0.115173
0.112629
0.113614
0.1119
0.110958
1.52362
1.47748
2.164
2.39511
6.31117
2.98069
5.59527
5.422
3.68325
2.58969
5.49506
5.8522
0.0749053
0.0774273
0.0775025
0.0788068
0.0819799
0.109998
0.105375
0.101391
0.0970381
0.0836362
0.0848375
0.0936752
0.0902977
0.0875763
0.109164
0.107279
0.105298
6.14486
1.19363
1.201
1.84528
1.98294
5.8959
2.58195
5.25552
5.15518
4.96551
3.23831
2.13123
5.09628
5.64064
0.0772134
0.0780765
0.0802057
0.0816228
0.104231
0.10242
0.099878
0.096754
0.0841731
0.0862864
0.0938316
0.0910669
0.0885801
6.72972
5.57147
0.933872
0.961258
1.5115
1.46816
5.43224
2.22694
5.10369
4.80251
4.70485
4.49143
2.74403
1.57428
4.65419
5.42224
7.71682
6.19527
5.00202
0.725567
0.737603
1.0983
0.598984
4.9439
1.88987
4.96101
4.6834
4.35608
4.24503
3.98918
2.11201
0.670424
4.12944
5.19129
8.45702
7.31807
5.61845
4.43878
0.548716
0.4918
0.398229
4.43009
1.55552
3.4973
4.65101
4.26075
3.91319
3.76503
3.4257
1.04656
3.41801
9.87216
7.99149
6.84947
5.00466
3.87348
0.367038
0.127278
3.86018
1.36411
2.74102
3.0513
4.32787
3.83804
3.46242
3.23625
2.71341
2.17238
11.192
9.11866
7.55512
6.31327
4.36291
3.27776
0.0831672
3.1235
1.42682
2.37748
2.6296
3.98914
3.40457
2.97521
2.5781
1.51258
11.8834
11.1958
8.24709
7.1189
5.67979
3.68154
2.56274
1.72015
1.30821
1.2781
2.05782
2.21896
3.6236
2.93449
2.3794
1.48399
12.1789
11.5543
10.9889
7.35482
6.6437
4.90835
2.8918
1.35748
1.48533
1.19871
1.14327
1.76401
1.80813
3.20571
2.3586
1.39308
8.19625
12.1419
11.0017
10.5331
6.45772
6.09148
3.95751
1.65785
1.5976
1.38046
1.09211
1.01802
1.48128
1.38832
2.66783
1.41467
6.90994
8.08124
11.8255
10.244
9.87954
5.55278
5.2813
2.57455
1.60919
1.48253
1.27297
0.984513
0.895791
1.19455
0.948718
1.7609
6.28234
6.61579
7.74788
11.233
9.30107
9.05233
4.81209
3.46507
1.5121
1.49313
1.36504
1.15975
0.870533
0.763072
0.869606
0.468578
6.29749
6.0992
6.19553
7.2497
10.4064
8.29884
8.02667
3.54779
1.33095
1.40529
1.37475
1.24213
1.03568
0.740167
0.587246
0.403876
6.85066
6.09706
5.7841
5.70194
6.63181
9.25183
7.27717
6.53049
1.42726
1.21903
1.29609
1.25102
1.10841
0.889606
0.566537
0.262904
8.05943
6.54303
5.77156
5.37907
5.15291
5.89771
7.7476
5.84111
2.64733
1.27947
1.11041
1.1813
1.1165
0.952134
0.690992
0.250284
12.0172
7.92267
6.1223
5.36175
4.89968
4.53886
4.98438
6.14578
3.54064
2.30457
1.14515
1.00096
1.05558
0.959376
0.741559
0.33434
11.7863
12.0196
7.56536
5.63279
4.88034
4.33849
3.81598
3.69397
4.95581
3.08133
1.99858
1.02015
0.884991
0.907656
0.747871
0.371167
11.0994
11.4998
11.7693
7.04207
5.08921
4.31789
3.65243
2.8934
5.13987
4.64469
2.64899
1.71423
0.897754
0.752485
0.706884
0.377014
9.72914
11.1082
10.9948
11.3074
6.39749
4.48152
3.62972
2.76188
5.23694
4.71759
4.32289
2.23268
1.43912
0.764241
0.576741
0.348486
8.40326
8.96465
10.9085
10.2879
10.6318
5.62441
3.75688
2.72937
5.56611
4.7809
4.29234
3.98429
1.81899
1.15964
0.587424
0.259309
7.78546
7.93326
8.09686
10.4993
9.46947
9.6988
4.691
2.80341
5.85956
5.12657
4.3343
3.86748
3.61859
1.39803
0.842271
0.262833
6.75489
7.38176
7.48525
7.17625
9.87232
8.57646
8.27068
3.58449
6.65206
6.26598
5.42412
4.67824
3.89328
3.43179
3.19905
0.952071
0.382995
6.13716
6.21876
6.91602
7.01478
6.21069
8.97621
7.60584
5.67272
5.08219
6.44238
5.93831
4.97184
4.22044
3.44414
2.95768
2.65516
0.456129
6.24951
5.56197
5.6355
6.38902
6.51554
5.19612
7.65274
6.02854
3.40969
4.53502
4.68559
6.22484
5.56948
4.49922
3.74179
2.95728
2.37298
1.72593
5.84698
4.99023
5.01541
5.74342
5.93698
4.34507
5.36593
2.94586
2.06781
4.31055
4.02632
4.25835
6.00319
5.16709
3.99668
3.21283
2.36034
1.40389
2.44258
3.56287
5.39505
4.42552
4.37036
4.96647
5.13591
3.17551
2.53896
1.6335
3.82471
3.54586
3.81484
5.77785
4.71755
3.43132
2.55265
1.35588
1.98655
3.13546
4.91506
3.86036
3.68716
4.00688
3.44997
2.18674
1.28414
3.37767
3.09108
3.34973
5.54631
4.18052
2.71228
1.43976
1.61984
2.74901
4.4083
3.26557
2.89628
2.6236
1.85777
1.00843
2.95786
2.64636
2.83225
5.30091
3.44671
1.48555
1.31479
2.39056
3.84274
2.55422
1.67442
1.55491
0.786425
2.54669
2.1796
2.16831
2.14593
1.05079
2.04467
3.11238
1.35868
1.3686
0.59648
2.11098
1.60598
1.04412
0.805809
1.68129
1.72986
0.399698
1.56807
0.6626
0.539076
1.23208
0.0959843
0.646718
0.148567
0.474824
0.0862871
0.084341
0.0856278
0.0856374
0.087085
0.0868567
0.0875061
0.0875384
0.0882495
0.0827381
0.0838419
0.0842683
0.085468
0.0857857
0.0869331
0.0875458
0.0918812
0.0933128
0.0946466
0.0968906
0.0983356
0.0884445
0.0892436
0.0882734
0.0884319
0.088742
0.0883793
0.0896063
0.0893369
0.0903769
0.10102
0.102178
0.0814158
0.08252
0.0831421
0.0842319
0.0848573
0.0858044
0.0867989
0.0878895
0.0888483
0.0898278
0.0909299
0.0923044
0.0941244
0.0955449
0.0986408
0.100127
0.105625
0.106373
0.0902313
0.0911043
0.0921595
0.0931221
0.0944965
0.0959459
0.0983213
0.0896359
0.0900935
0.0896196
0.0896326
0.0905178
0.0898749
0.0918757
0.0913559
0.0927016
0.098148
0.0999635
0.110626
0.112298
0.104853
0.104605
0.109698
0.0804108
0.0814371
0.0823017
0.0833109
0.0842604
0.0852594
0.0864627
0.0873952
0.0891247
0.0902114
0.0916829
0.0929476
0.0968744
0.0983102
0.101526
0.102625
0.107164
0.108421
0.113562
0.115708
0.122057
0.122185
0.129169
0.0910777
0.0918021
0.092763
0.0937814
0.0952509
0.0908136
0.0910864
0.0911649
0.0908531
0.0924217
0.0916467
0.09512
0.094064
0.0933456
0.0956633
0.099313
0.0995443
0.104584
0.106207
0.125798
0.113812
0.121451
0.110574
0.113475
0.0800106
0.0809406
0.0820842
0.083079
0.0843392
0.085258
0.0867448
0.0876514
0.0892551
0.0902242
0.0924454
0.094567
0.10271
0.0998404
0.106163
0.108627
0.113114
0.114599
0.119475
0.129189
0.134862
0.135707
0.149434
0.152061
0.145774
0.154284
0.154875
0.196079
0.0920559
0.0928139
0.0936338
0.0945893
0.097469
0.096225
0.0920967
0.0921329
0.092779
0.0923016
0.0952382
0.0942256
0.0934811
0.0996736
0.0983496
0.0959515
0.098393
0.100292
0.248652
0.214749
0.307559
0.104694
0.105005
0.110544
0.112782
0.127368
0.129487
0.16533
0.144595
0.121899
0.127939
0.0807294
0.0813113
0.0829247
0.0835384
0.085325
0.0859068
0.0878857
0.0886571
0.0918712
0.0911019
0.0953346
0.0967502
0.101598
0.103915
0.113397
0.111606
0.120859
0.129677
0.13666
0.137446
0.149284
0.714306
0.702336
0.493858
0.162283
0.171105
0.18639
0.192698
0.202554
0.217863
0.218442
0.491397
0.292977
6.43685
7.00328
6.8543
6.54128
7.16337
7.18529
6.95674
6.58404
0.0931956
0.0935563
0.0945591
0.0954934
0.0971854
0.0961145
0.0934788
0.093297
0.0952796
0.0944604
0.093942
0.1019
0.100516
0.0992003
0.0980618
0.0967061
0.0996348
0.105654
0.101571
0.104955
6.03569
5.06823
1.86214
1.31926
0.772767
0.174825
0.249645
0.305694
0.565037
0.112771
0.113133
0.114137
0.113693
0.125754
0.127854
0.139627
0.136014
0.164117
6.2291
6.91998
4.54367
7.14393
7.20558
7.19013
5.44581
6.07987
6.16811
7.17435
0.0869456
0.0845298
0.0886629
0.0873176
0.091046
0.0900318
0.0936413
0.0934807
0.0966377
0.0964246
0.100474
0.100445
0.1082
0.111131
0.116729
0.115716
0.121445
0.14687
0.124613
0.159712
0.211122
0.203495
0.247597
0.248777
0.243962
1.28004
1.78643
3.42012
2.48517
1.29583
0.996614
0.356778
0.39488
0.499055
0.505209
1.02152
0.59623
0.580107
3.88688
6.05873
4.96674
5.26934
6.15822
6.68968
6.92248
6.91552
4.9766
4.92455
7.12858
7.08254
5.57465
5.79462
6.38374
7.01992
6.60014
6.96501
0.0944606
0.0946744
0.0955553
0.0968509
0.0972286
0.0962144
0.0957139
0.0950037
0.0946375
0.103986
0.102515
0.101115
0.0999382
0.0988843
0.0978917
0.0975097
0.100507
0.100881
0.104795
0.10529
0.109722
0.104594
2.68332
4.52691
3.53011
5.91348
4.61568
1.67631
2.70594
1.43474
0.753223
0.113105
0.60983
0.20025
0.348301
0.256076
0.123252
0.120082
0.129129
0.124225
0.132148
0.130872
0.149059
0.143096
0.200519
6.24611
7.08755
5.94617
4.28847
4.70122
3.65188
7.32313
7.42709
7.24728
5.9956
4.52768
5.6152
0.188876
0.103212
2.1099
0.646661
0.135769
0.105392
0.124286
0.105197
0.119342
0.10462
0.117833
0.112401
0.109833
0.121444
0.120479
0.143004
0.175985
0.16499
0.201353
0.283263
0.252446
0.336587
0.661592
0.377445
0.40745
0.903018
1.02951
0.552034
0.485743
0.655859
0.633644
0.798739
0.799571
1.92853
2.54685
3.68286
2.97821
2.08563
1.51578
1.16535
1.16966
1.75767
1.31112
1.4296
4.93852
4.32197
5.15473
6.16923
5.86768
6.84965
6.64574
7.10547
7.01177
7.05421
5.21976
5.77636
6.98976
7.00405
6.84518
6.81284
6.51197
0.0976847
0.0956962
0.0957571
0.0966029
0.0971998
0.0964498
0.0961673
0.0983374
0.106113
0.104606
0.103011
0.101721
0.100582
0.0994377
0.0988004
0.0978644
0.108095
0.10574
0.107976
0.110326
0.108803
0.110229
0.101441
0.101339
0.101776
0.103442
0.114023
0.108314
0.110015
0.105433
4.62902
4.09864
3.03562
0.983758
2.53514
1.74129
0.11949
0.132992
0.13156
1.0983
0.262874
0.561414
0.363524
0.143581
0.139696
0.152426
0.148495
0.176175
0.165095
0.276604
4.41595
6.61331
7.22229
6.23275
5.30791
7.45508
3.3564
3.90488
2.72588
7.66166
7.44956
6.66571
5.50144
3.99915
4.74048
4.74048
1.19307
0.340569
4.56654
3.584
0.686503
0.334987
0.521579
0.254447
0.401498
0.216238
0.342305
0.182519
0.24751
0.445856
0.779904
0.554884
0.962673
0.620793
0.758156
1.34604
1.67176
1.82977
1.18515
1.1972
1.86067
2.09356
1.24449
1.37516
1.67286
1.58396
1.9597
1.67442
3.94932
2.76638
3.31133
3.14337
2.68383
2.53676
2.90888
2.19017
2.70133
5.38862
4.52456
6.74408
6.05963
6.36852
7.075
6.97285
6.92104
7.00103
6.52566
6.61314
0.10997
0.108458
0.0970657
0.0982449
0.0975379
0.0969995
0.0970137
0.0985751
0.099701
0.104782
0.102922
0.102217
0.10075
0.100235
0.0991504
0.0988472
0.098096
0.106734
0.104837
0.105984
0.107102
0.105414
0.106762
0.101121
0.101721
0.103049
0.105637
0.120781
0.113513
0.11468
0.108739
1.79907
2.65248
3.52818
0.129591
0.142666
0.141338
0.163863
0.159333
0.784172
1.83918
0.360462
0.709558
0.199193
0.182769
0.274153
0.236293
0.369541
3.59617
5.12903
4.763
6.87839
6.98494
7.3625
7.7912
7.71938
2.65454
3.60159
7.40806
6.47092
5.72586
4.05172
4.76352
4.77072
2.08619
4.79474
5.11651
5.63876
3.79035
2.39492
5.78655
6.27726
3.38027
1.7372
2.62081
1.23112
2.01851
1.02299
1.35952
1.58009
1.20678
2.18767
1.79515
1.73089
1.7036
1.82557
2.77634
2.8708
2.99896
3.31586
2.53529
2.37376
3.40244
3.59086
2.57454
2.82566
3.30463
3.11559
3.49691
4.7075
4.18929
4.54832
3.71783
4.26371
4.2318
3.99023
4.41084
6.37133
5.70651
6.97062
6.81815
6.91131
6.92594
6.35208
6.45631
0.111827
0.109318
0.107507
0.106011
0.0985783
0.0984299
0.0987415
0.099537
0.100674
0.103867
0.102439
0.101764
0.100651
0.100238
0.0994199
0.0994636
0.103702
0.104573
0.103088
0.104272
0.103446
0.104478
0.102078
0.10217
0.104008
0.109931
0.105702
0.102606
0.130489
0.121545
0.122576
0.115439
0.138621
3.15789
2.29781
0.154934
0.151603
0.184913
0.179435
0.26398
0.313108
0.249559
0.790996
2.07712
0.956496
0.499614
0.41774
0.863171
5.07833
4.23289
7.38264
6.75846
7.96098
7.84702
7.56295
7.28692
6.88235
6.53762
0.210285
0.705255
4.68038
5.55246
1.28227
3.89451
5.77815
5.4702
6.30828
6.05826
5.52903
6.20886
5.92853
5.31232
5.37346
3.55638
4.2898
3.29607
2.91994
2.89771
4.23698
3.33997
4.18575
3.51506
3.69362
4.28948
4.65804
4.60075
4.71069
4.25123
4.11744
3.76084
4.91981
5.09256
4.25957
4.44552
5.1154
5.01063
5.81496
6.08013
5.63491
5.50625
5.81003
5.48552
5.69692
6.82128
6.7015
6.68326
6.72465
6.07289
6.17605
0.0883041
0.109208
0.112428
0.111046
0.109207
0.106993
0.105569
0.104043
0.0996399
0.0998198
0.100171
0.100277
0.102638
0.102369
0.101657
0.10091
0.10042
0.100059
0.101264
0.102194
0.101461
0.102485
0.102115
0.103026
0.102247
0.106255
0.107068
0.116204
0.105181
0.106726
0.142526
0.12634
0.130047
0.117099
0.159501
0.186345
0.168523
4.47215
2.79441
0.249425
0.210183
0.489555
0.40751
1.21338
1.04745
0.887083
2.33087
3.05954
1.6591
7.34057
6.2274
8.09296
8.20909
7.95444
7.56019
7.10176
6.7454
0.147764
0.452914
4.10867
6.35632
0.843989
2.38478
6.33681
6.15561
5.94284
6.54576
6.07206
5.58296
6.94264
6.23696
6.87156
6.45772
6.04463
6.03658
5.64028
4.70219
4.75367
5.93671
5.41714
5.1683
5.39497
5.61138
5.49955
5.7562
5.68175
5.63633
5.58203
5.88747
5.13207
5.41439
5.92303
5.91093
5.63872
5.73429
6.03642
6.07651
6.29398
6.22883
6.63653
6.40282
6.38147
6.46179
6.51029
5.76739
5.92028
0.0813071
0.08515
0.0895016
0.1084
0.111028
0.110166
0.108877
0.108317
0.106996
0.105156
0.102738
0.104171
0.107606
0.108723
0.101439
0.100386
0.0997168
0.0998974
0.100681
0.0999315
0.0998272
0.100272
0.100896
0.100628
0.101576
0.101466
0.102139
0.103055
0.105537
0.108774
0.114531
0.117212
0.110808
0.139031
0.163088
0.12567
0.142404
0.177371
0.231726
0.201111
0.251878
0.390124
0.285174
6.40922
5.35254
1.12026
0.821081
2.52844
1.97487
4.38444
5.8014
3.9527
8.41026
8.36421
8.49808
8.01751
7.69694
7.18737
0.132727
0.319979
3.27301
6.21653
0.558913
1.58591
6.09933
6.91304
5.33418
5.50433
6.67887
5.91888
6.84418
6.61157
5.25079
5.76534
6.50691
6.38534
6.50623
6.22878
6.43491
5.79595
5.99366
6.12444
6.12133
5.87713
5.92105
5.76587
5.79622
5.75973
5.65375
5.7
5.57777
5.42403
5.41727
5.94674
5.93583
5.9673
5.85137
6.00709
5.95813
5.98499
5.86734
5.99575
6.23281
6.29594
6.00691
5.58537
5.75078
0.0798497
0.0815291
0.0836275
0.088278
0.0916403
0.107552
0.107288
0.106747
0.105892
0.105941
0.101945
0.103819
0.103085
0.104861
0.105327
0.105129
0.104386
0.105593
0.103394
0.103374
0.101401
0.101474
0.103494
0.100558
0.100018
0.100393
0.100161
0.101776
0.100291
0.100535
0.100848
0.101112
0.101416
0.101964
0.102342
0.105676
0.111381
0.107758
0.115703
0.124261
0.122095
0.130374
0.158385
0.182862
0.142563
0.161725
0.211116
0.277952
0.677824
0.612249
0.482487
0.91243
1.83703
1.79773
8.61347
7.78241
4.25661
4.43244
6.74619
7.91599
6.7494
9.1968
8.70592
8.47004
8.0292
0.125365
0.244993
2.48018
5.11472
0.386099
1.08107
5.2052
7.04077
5.64782
5.15751
6.79149
6.34774
5.66355
5.3064
4.96194
4.94011
6.01039
6.12593
5.20813
5.65333
5.40144
5.83861
5.75951
5.7951
5.78928
5.42188
5.45111
5.01472
5.002
4.89222
5.17012
4.77335
4.62967
4.06486
3.69966
4.36691
4.45235
5.39142
5.81366
5.8169
5.30367
5.4023
5.45356
5.40807
5.04285
5.47748
0.104953
0.0799013
0.0807019
0.0819051
0.0839189
0.0863167
0.090602
0.094147
0.0809468
0.0809736
0.0825054
0.0822591
0.0844166
0.0837396
0.0994838
0.0998619
0.0976157
0.0980874
0.0956137
0.0962184
0.0934582
0.0942582
0.0866424
0.0856737
0.088993
0.0876983
0.0912484
0.0921057
0.089899
0.104495
0.103983
0.103446
0.103806
0.102818
0.102498
0.103224
0.102315
0.102511
0.101934
0.103083
0.100439
0.100736
0.098546
0.098895
0.102416
0.100979
0.102227
0.100842
0.1016
0.101813
0.10161
0.101807
0.102011
0.102693
0.103012
0.103096
0.102795
0.103468
0.10928
0.105132
0.118739
0.112479
0.123788
0.137535
0.132849
0.148755
0.186409
0.235003
0.167931
0.200843
0.291739
0.634522
3.15978
2.39124
3.2319
1.46475
3.14006
5.22052
6.02622
9.54478
9.41726
8.34009
9.47905
8.52934
9.66703
8.84816
0.11863
0.195715
4.60845
1.71765
2.76464
0.285427
0.752205
6.18859
6.87956
5.79507
5.20493
6.58347
6.13346
6.62712
4.77333
4.6833
4.68901
5.27861
5.18837
4.42668
4.66443
4.67997
4.42973
4.85221
4.99529
4.53541
4.47181
4.07618
4.01872
3.53977
3.60939
3.83238
2.86451
2.87748
2.57341
2.58361
3.31436
4.85837
4.73309
3.6139
4.18005
4.02274
0.105152
0.0928511
0.0964335
0.0817867
0.0827037
0.0843202
0.0865999
0.0892485
0.0826013
0.0829235
0.0837859
0.083849
0.0852611
0.085177
0.0966907
0.0972925
0.0948328
0.095654
0.0928281
0.093845
0.0907288
0.0920256
0.0870412
0.0866911
0.0887904
0.0901217
0.0883466
0.102436
0.101959
0.10172
0.102488
0.102298
0.100005
0.100502
0.100096
0.10115
0.0982451
0.0987095
0.0964144
0.0969364
0.102126
0.102778
0.102457
0.104148
0.103578
0.103978
0.104326
0.103831
0.104638
0.10574
0.104368
0.104616
0.104146
0.112449
0.107891
0.10836
0.126988
0.117294
0.133904
0.156701
0.151233
0.177443
0.20873
0.422326
0.204709
0.275071
0.615104
1.98521
6.16301
6.89815
6.06265
7.30924
3.95721
6.79833
8.4746
9.42168
10.4166
10.1896
10.2426
0.116245
0.146113
0.201147
2.92353
4.90775
1.1163
2.17693
0.444643
5.46923
6.40791
5.35446
4.77205
5.88369
5.50213
6.33771
6.47715
6.05851
5.81052
4.21264
4.36551
4.39333
4.28826
3.94381
4.0138
3.92845
3.81742
3.9629
3.98695
3.62784
3.60145
3.11151
3.19169
2.53063
2.64741
2.09497
2.14643
1.9078
1.82292
3.29188
1.83745
2.80772
4.94079
0.0960433
0.101914
0.0893543
0.0930992
0.0838993
0.085255
0.087192
0.084542
0.0849128
0.0854589
0.085541
0.0866525
0.0866525
0.0947542
0.0953831
0.0931137
0.0938997
0.0913908
0.0922768
0.0897604
0.0908068
0.0882043
0.089301
0.0879218
0.10093
0.100875
0.100873
0.100672
0.0982254
0.099055
0.0987759
0.100148
0.0965681
0.0972837
0.0949501
0.095669
0.102735
0.102123
0.104913
0.103949
0.109265
0.107568
0.110357
0.10946
0.106664
0.107688
0.110609
0.108404
0.106325
0.112142
0.107604
0.107722
0.121194
0.120588
0.13936
0.137144
0.174812
0.171385
0.232689
0.197636
0.317599
0.726759
0.261634
0.399991
1.72494
4.21718
6.44826
9.49202
9.57009
9.58303
9.76859
10.7104
10.669
10.9649
0.709934
0.106076
0.110252
0.138149
0.181668
0.331899
3.99342
1.61568
2.42636
5.61021
4.40934
4.3739
4.83354
5.62517
6.04329
4.82457
5.30256
6.14278
6.08714
5.61298
5.18766
3.78877
3.97597
3.62134
3.63959
3.52903
3.54845
3.41325
2.95361
3.22986
3.19762
2.44862
2.63793
1.98453
2.15576
1.63659
1.75711
1.49814
1.47356
0.0939125
0.0973743
0.0864662
0.0881791
0.090972
0.0862998
0.0877665
0.0870141
0.0874332
0.0878744
0.0879426
0.093334
0.0942506
0.0916772
0.0929246
0.0903374
0.0914923
0.0890374
0.0902301
0.0890406
0.101338
0.0999624
0.100114
0.100505
0.0973036
0.0981382
0.0998359
0.098254
0.0957118
0.0966617
0.0943773
0.0951851
0.105274
0.104024
0.104053
0.107983
0.106118
0.114915
0.114256
0.113485
0.115834
0.122411
0.119668
0.120127
0.117333
0.116247
0.11235
0.11009
0.12013
0.116743
0.123324
0.14717
0.136964
0.216427
0.217166
0.170493
0.202736
0.31167
0.314375
1.00366
2.03325
0.893378
3.81025
5.77942
7.69226
10.4293
11.7991
11.5334
11.4767
1.49632
2.00922
0.100002
0.539364
1.02715
0.107975
0.112431
0.120113
0.153943
0.195475
0.316173
3.90102
3.15445
5.57895
5.13487
3.9108
4.27559
5.87288
5.97448
4.28942
4.80377
5.75767
5.58935
4.93945
3.37367
3.55625
2.95519
3.10185
3.11388
2.9644
2.5239
2.65801
2.09081
2.27475
1.75617
1.89739
1.43176
1.60798
0.0965911
0.0890828
0.0922296
0.0943651
0.0946937
0.088455
0.0900418
0.0886777
0.0895389
0.0893463
0.0896051
0.0927244
0.0938908
0.0916056
0.0925776
0.0904045
0.0914575
0.0903344
0.0943907
0.100275
0.100002
0.101444
0.0992535
0.0981084
0.097025
0.1017
0.0971245
0.0962065
0.0961251
0.105105
0.103394
0.106927
0.109547
0.109694
0.114789
0.113586
0.12317
0.125327
0.128374
0.127289
0.140547