/*--------------------------------*- C++ -*----------------------------------*\
  =========                 |
  \\      /  F ield         | OpenFOAM: The Open Source CFD Toolbox
   \\    /   O peration     | Website:  https://openfoam.org
    \\  /    A nd           | Version:  8
     \\/     M anipulation  |
\*---------------------------------------------------------------------------*/
FoamFile
{
    version     2.0;
    format      ascii;
    class       volScalarField;
    location    "7000";
    object      nut;
}
// * * * * * * * * * * * * * * * * * * * * * * * * * * * * * * * * * * * * * //

dimensions      [0 2 -1 0 0 0 0];

internalField   nonuniform List<scalar> 
4109
(
0.000666265
0.000661149
0.000658994
0.000666501
0.000669123
0.000677728
0.000672308
0.000677834
0.000675094
0.000656937
0.000666836
0.000678393
0.000667751
0.000671225
0.000676896
0.000677629
0.000666105
0.00067377
0.00067917
0.00067574
0.000660309
0.000678075
0.000675372
0.000678083
0.000673687
0.000668146
0.000656735
0.000672736
0.000677494
0.000681392
0.000677358
0.00067659
0.000669906
0.000671165
0.00067748
0.000682464
0.000673898
0.000667084
0.000666989
0.000669982
0.000667242
0.000662818
0.000674092
0.000681481
0.000678126
0.00148321
0.00083477
0.000677923
0.000677392
0.00066401
0.000673181
0.000677458
0.000676978
0.000672719
0.000675898
0.000660847
0.000660634
0.000678151
0.0006766
0.000669567
0.000675937
0.00196288
0.000684656
0.000680092
0.000679294
0.000741806
0.00123259
0.000678716
0.00067353
0.00066074
0.000671611
0.000678935
0.000689437
0.000677356
0.000679782
0.000673378
0.000670866
0.000667801
0.000647704
0.000675096
0.000679322
0.000679845
0.000675682
0.000668591
0.000726731
0.000741489
0.00152879
0.00193108
0.00194651
0.000684497
0.000685493
0.000680569
0.000680244
0.00068043
0.000680309
0.000942866
0.000676796
0.000663066
0.00069215
0.000686003
0.000682332
0.000686539
0.000692451
0.000684845
0.000673051
0.000676275
0.000674377
0.000666535
0.000657597
0.000678677
0.000651986
0.000680808
0.000680679
0.00067707
0.000670756
0.00210015
0.000824386
0.0009929
0.00126647
0.0019698
0.00201129
0.00066892
0.000687798
0.000689215
0.000682885
0.000682043
0.000681575
0.000676994
0.000937163
0.000657082
0.000665115
0.000692982
0.000689521
0.000694141
0.000692902
0.000681226
0.000689443
0.000676549
0.000673685
0.000671806
0.000659645
0.000677542
0.000682072
0.000681496
0.000682113
0.000678208
0.000671105
0.00175775
0.00102409
0.00194692
0.00131176
0.00201073
0.000801675
0.000690524
0.000688852
0.000683249
0.000682933
0.000682979
0.000681023
0.00066557
0.000818531
0.000635772
0.000694228
0.000690487
0.000696296
0.000694303
0.000695497
0.000696317
0.000680837
0.000679216
0.000677026
0.000671152
0.000655676
0.00068003
0.000674242
0.000683536
0.000683207
0.00067896
0.000673501
0.00118945
0.00227656
0.00121373
0.00194051
0.00199595
0.000750647
0.000685814
0.000686142
0.000684843
0.00068279
0.000684422
0.000668604
0.000860116
0.00063404
0.000688896
0.000689207
0.000697156
0.000692025
0.000697555
0.000700321
0.000691743
0.000685023
0.000679233
0.000676839
0.000673342
0.000662507
0.000682529
0.000676078
0.000684285
0.000684251
0.000681518
0.0006736
0.00116425
0.00214256
0.00198155
0.00117124
0.00202789
0.000748155
0.000685986
0.00068805
0.000685623
0.00067157
0.000858363
0.000647797
0.000689095
0.000691109
0.000692439
0.000692303
0.000695298
0.000700714
0.000698417
0.000702046
0.00068664
0.000682459
0.000679888
0.00067489
0.000659761
0.000685265
0.000672484
0.000685585
0.00068589
0.000682371
0.000683524
0.000676451
0.00109774
0.00216667
0.00120791
0.00196791
0.00201419
0.000727623
0.000688585
0.000688749
0.000679212
0.00085723
0.000655256
0.000692144
0.00069162
0.000694055
0.000695813
0.000695599
0.000695854
0.000701318
0.00070361
0.000696693
0.000693042
0.00068229
0.000678408
0.000666223
0.000683507
0.000688392
0.000674503
0.000687144
0.000685074
0.000676338
0.000685539
0.00218334
0.00104735
0.00198888
0.00118715
0.00203984
0.000725469
0.000782843
0.000674348
0.000680933
0.00085114
0.000657079
0.000692622
0.000690041
0.000694584
0.000698564
0.000699208
0.00069712
0.000698764
0.000704659
0.000703081
0.000707616
0.000698337
0.000692275
0.00066249
0.000680376
0.000675028
0.000684954
0.000685326
0.000692616
0.000673937
0.000690215
0.000679521
0.000687188
0.00101643
0.00217059
0.00196053
0.00114782
0.00201491
0.000712726
0.000754227
0.000791965
0.000796536
0.000776138
0.000781047
0.000789428
0.000933739
0.000657993
0.000630109
0.000676564
0.000661395
0.000688512
0.000694437
0.000701275
0.000696714
0.000699048
0.000710218
0.000699522
0.000705478
0.000710252
0.000707384
0.000699009
0.000706458
0.000701032
0.000673308
0.000677399
0.000686289
0.000688454
0.000679284
0.000694702
0.00067721
0.00069102
0.000689165
0.000985842
0.00223332
0.001962
0.000704604
0.000781649
0.000845627
0.000776562
0.000788894
0.000787184
0.000805403
0.000707786
0.000723057
0.000731182
0.000762507
0.000766352
0.000739405
0.000774973
0.000783626
0.00147092
0.000617693
0.000601108
0.000642123
0.000694912
0.000712885
0.00069793
0.000699944
0.000702225
0.000700739
0.000709239
0.000702444
0.000709218
0.000715881
0.00071441
0.000708488
0.000719718
0.000730565
0.000729091
0.000666374
0.000682993
0.000689837
0.000688672
0.000682667
0.000690363
0.000696157
0.00067425
0.000694434
0.00095439
0.00236961
0.000812917
0.000817778
0.000783554
0.000782797
0.000801207
0.000722358
0.000710015
0.000739573
0.00072885
0.00073474
0.000743961
0.000750938
0.00078008
0.000773021
0.000771031
0.00251408
0.00108344
0.000550396
0.000616969
0.00068484
0.000713753
0.000713381
0.000700474
0.000704156
0.00070036
0.000702779
0.00070872
0.000703469
0.000718359
0.000718383
0.000723985
0.000723503
0.000728303
0.000726314
0.00067846
0.000685221
0.000693821
0.000693996
0.000691275
0.000682441
0.000692461
0.000696405
0.000699828
0.000700012
0.000676511
0.00098199
0.000792404
0.000845205
0.000813598
0.000783767
0.000789003
0.000800714
0.000729181
0.000719264
0.000725845
0.00073684
0.000740067
0.000740451
0.000729982
0.000732529
0.000734725
0.000755152
0.000775065
0.000770398
0.000767088
0.0024062
0.00188752
0.000629082
0.000630262
0.000682898
0.000713236
0.00071153
0.000699833
0.000703763
0.000705577
0.000704536
0.000706444
0.000716621
0.000717352
0.00072241
0.000722517
0.000722847
0.000726498
0.000672547
0.000695166
0.000691415
0.000696603
0.000697503
0.000685975
0.000685736
0.000693737
0.000697295
0.000689702
0.00150544
0.00177878
0.00070374
0.000651939
0.000816201
0.0008158
0.000834058
0.000843411
0.000818474
0.000779392
0.000787528
0.000804595
0.000732342
0.000729804
0.000734656
0.00074018
0.000749291
0.000738791
0.000754095
0.000735516
0.0007412
0.000764273
0.000759209
0.000770821
0.000774489
0.00278686
0.00217925
0.00237019
0.000591714
0.000604257
0.000676025
0.000707724
0.000710786
0.000703374
0.000708562
0.00070566
0.000706809
0.000712341
0.000715506
0.000717361
0.000720665
0.000723511
0.000728441
0.000729592
0.000686518
0.000689663
0.000704264
0.000697061
0.000696096
0.000696621
0.000699745
0.000705148
0.000689766
0.000692915
0.000650505
0.000609074
0.000833277
0.000811154
0.000822821
0.000772177
0.000753121
0.000853262
0.000810039
0.000783689
0.000786126
0.000799478
0.000735317
0.000733734
0.000732548
0.000762816
0.00074474
0.000749484
0.000739535
0.000741817
0.000760119
0.000755396
0.000767055
0.000773012
0.000721431
0.00284959
0.00248787
0.00250247
0.000636194
0.000600573
0.000674865
0.000708724
0.000711171
0.000707912
0.000700742
0.000709742
0.000713253
0.000715882
0.000718168
0.000720999
0.000724378
0.000726664
0.000730681
0.000732652
0.000677461
0.000699524
0.00070135
0.00070218
0.000701214
0.000703283
0.000702603
0.000701552
0.000690968
0.000698237
0.000698538
0.000682292
0.000833755
0.000762114
0.000775929
0.000825512
0.000768338
0.000858778
0.000806156
0.000785537
0.000791953
0.000800142
0.000808147
0.000738785
0.000736165
0.000736588
0.000732746
0.000742885
0.000752132
0.000748784
0.000759373
0.000764204
0.00077204
0.000772974
0.00069962
0.00290525
0.00258038
0.00264794
0.000610344
0.000589554
0.000668023
0.000714169
0.000709997
0.000712516
0.000707617
0.000714456
0.000718744
0.000723482
0.000719201
0.000724659
0.00072971
0.000729241
0.000734194
0.000737177
0.000690588
0.0006943
0.000709379
0.00070781
0.000704253
0.000705805
0.000709921
0.000693728
0.000695727
0.000699243
0.000655375
0.00082534
0.000807001
0.000754352
0.000745641
0.000768304
0.000808853
0.000760515
0.000818821
0.00084857
0.000783231
0.000794061
0.00079613
0.000809212
0.000741998
0.000737882
0.0007391
0.00073897
0.000738733
0.00074731
0.000747499
0.000745284
0.000756144
0.000765072
0.000775426
0.00077977
0.000796905
0.00293705
0.00277232
0.0026717
0.000639326
0.000581236
0.000682166
0.000715726
0.000712734
0.000705268
0.000715765
0.000719124
0.000722538
0.000720519
0.000726678
0.000731715
0.000734373
0.000735656
0.000738371
0.000685476
0.000706242
0.000708059
0.000694955
0.000708173
0.000706522
0.000708098
0.000704476
0.000699446
0.000700368
0.000650381
0.000845329
0.000821365
0.000823159
0.000792267
0.000736472
0.000737744
0.000751785
0.000773107
0.000801711
0.000773511
0.000735647
0.000829516
0.000837311
0.000849638
0.000782745
0.000796472
0.000798009
0.000798372
0.000743635
0.000740386
0.000737116
0.000738384
0.000747728
0.000753438
0.000746811
0.000783374
0.000761238
0.000761566
0.000773242
0.000721063
0.00298094
0.00287832
0.00282535
0.000682562
0.000613329
0.000593656
0.000721205
0.000712277
0.00072261
0.000718751
0.000725871
0.000726003
0.000723071
0.000732463
0.000734349
0.000735742
0.000700274
0.000704206
0.00071307
0.000697666
0.000700463
0.000712299
0.000707509
0.000709266
0.000715087
0.000700229
0.000645625
0.000694303
0.000705103
0.00082477
0.000810524
0.000811036
0.00078288
0.000733993
0.00075163
0.000771076
0.000765716
0.000792585
0.000723135
0.00072049
0.000719677
0.000711725
0.000703352
0.000833502
0.000814181
0.000830033
0.000815876
0.000786427
0.000785195
0.000787096
0.000784132
0.000745601
0.000741333
0.000743365
0.000755038
0.00075122
0.000749793
0.00074309
0.000772467
0.000772577
0.00076588
0.000769388
0.000862102
0.00308115
0.00301773
0.00266131
0.000600178
0.000588966
0.000716567
0.000668514
0.000733371
0.000721287
0.000731014
0.00073407
0.000737593
0.000699794
0.000716519
0.000699384
0.000702589
0.000708991
0.00071335
0.000710726
0.000712196
0.000647694
0.000700412
0.000704606
0.000705744
0.000704582
0.000810358
0.000803001
0.000801587
0.000773699
0.000731446
0.000758601
0.000788226
0.000758369
0.000739198
0.000722787
0.000722326
0.000714225
0.000711871
0.000701136
0.000712633
0.000819152
0.000851431
0.000813152
0.000820597
0.000772634
0.000775945
0.000779164
0.000764174
0.000744145
0.000743613
0.00075278
0.000747537
0.000753148
0.000748821
0.000747915
0.000773077
0.000774199
0.000764009
0.000600627
0.00301876
0.00303502
0.00271896
0.000584631
0.000576695
0.000739602
0.00104359
0.000729143
0.000734061
0.000737358
0.000726354
0.000701943
0.000705362
0.000719139
0.000713343
0.000717107
0.000710644
0.000668252
0.000709488
0.000715242
0.000722546
0.000798206
0.000800707
0.000795473
0.000791689
0.000765053
0.00076085
0.000779182
0.000751578
0.000743675
0.000753169
0.000736905
0.000726932
0.000734466
0.000729807
0.00072856
0.000729323
0.000780501
0.00080262
0.000785539
0.000810352
0.000764549
0.00076335
0.000772525
0.000767059
0.000786337
0.0007447
0.000759009
0.000754338
0.000753462
0.000751401
0.000747544
0.000761087
0.000763733
0.000762832
0.000652
0.00316702
0.00311439
0.00308798
0.000521882
0.000730767
0.000623722
0.000737323
0.00073957
0.000704122
0.000706801
0.000713763
0.000716704
0.000718303
0.000715131
0.000681467
0.000709621
0.000731107
0.000706683
0.000796965
0.000794569
0.000788689
0.000778046
0.000756886
0.000774881
0.000746095
0.000767531
0.000764999
0.00075651
0.000736836
0.000740971
0.000751557
0.000743503
0.000747355
0.000811957
0.000786015
0.000803335
0.000757013
0.000755443
0.000762665
0.000778092
0.000778296
0.000754647
0.000751563
0.00074788
0.000756304
0.000753959
0.000752845
0.000541455
0.00315479
0.00451635
0.00098258
0.000747294
0.000624832
0.000742918
0.000710469
0.000723583
0.000717952
0.000724022
0.000714952
0.000687643
0.000709299
0.000711613
0.000785508
0.000782357
0.000777861
0.000770986
0.000751427
0.000740671
0.000736378
0.000731843
0.000728245
0.000711949
0.000714869
0.000724374
0.000717777
0.00072109
0.000778717
0.000794244
0.000788784
0.00075298
0.000759067
0.000774433
0.000752274
0.000774513
0.000752664
0.000748299
0.000751739
0.000750803
0.000752074
0.000756311
0.00543145
0.00515323
0.00141609
0.000765344
0.000573517
0.000718993
0.000721464
0.0007164
0.000720209
0.000692812
0.000715807
0.000728339
0.00078169
0.000783999
0.000769992
0.000762461
0.000745371
0.000741587
0.000736439
0.000733801
0.000716941
0.000721389
0.000729071
0.000722717
0.0007273
0.000768414
0.000776976
0.000780054
0.000761136
0.000763823
0.000753084
0.00076916
0.000747995
0.000747102
0.000746549
0.000749367
0.00112691
0.000979074
0.0062868
0.00682806
0.00239387
0.00122807
0.000722932
0.000720011
0.000727589
0.000725516
0.000632079
0.000724663
0.0007265
0.000766126
0.000767333
0.000764501
0.000760206
0.000752361
0.000751606
0.000743994
0.000733394
0.000730727
0.000744563
0.000738681
0.000737047
0.000768885
0.000764093
0.000769744
0.000759114
0.000750434
0.000753619
0.000760966
0.000871575
0.000966701
0.00155517
0.00833396
0.00824147
0.00135778
0.00103473
0.00190874
0.000724319
0.000722461
0.000726678
0.000734799
0.000564283
0.000728245
0.000724397
0.000769562
0.000767397
0.000759356
0.000754433
0.000749872
0.000746371
0.000731887
0.00073398
0.000742773
0.000739921
0.00073696
0.000766272
0.000765846
0.000757014
0.0007548
0.00075496
0.000758227
0.000576017
0.000754681
0.000793178
0.00245511
0.00119625
0.00083634
0.00188686
0.00179721
0.000728774
0.000725082
0.000749404
0.00053603
0.000730772
0.000726193
0.000755614
0.000757067
0.000754632
0.000749544
0.000747144
0.000729115
0.000736721
0.000742528
0.000741542
0.000736524
0.000765151
0.000762563
0.000749425
0.000763755
0.000750748
0.000752231
0.000473559
0.000481766
0.000625513
0.00061266
0.000562112
0.00184246
0.000996396
0.000638728
0.00161906
0.00166801
0.000729455
0.000736945
0.000767748
0.000732452
0.00073186
0.000731432
0.0007561
0.000749955
0.000748684
0.000743728
0.000737027
0.000732882
0.000743406
0.000739525
0.000737735
0.000760134
0.000748737
0.000759778
0.000747322
0.000747858
0.000374648
0.00038717
0.000487809
0.000432015
0.0016363
0.00040713
0.00191225
0.00153351
0.000776438
0.000447343
0.00133272
0.00152389
0.0007256
0.000745406
0.0007311
0.00073357
0.000735269
0.000750788
0.000749782
0.000749192
0.000745049
0.000737951
0.000737599
0.000743935
0.000740866
0.000739951
0.000755115
0.000745847
0.000742819
0.0013857
0.000288043
0.000294389
0.000346603
0.000258381
0.00141385
0.000280811
0.00197274
0.00159882
0.00122113
0.000550758
0.000267538
0.00103011
0.00136441
0.000739047
0.000728999
0.000735013
0.000731132
0.000740008
0.000742347
0.000745426
0.000743554
0.000736345
0.000737019
0.000743284
0.000740254
0.000740379
0.00140427
0.00115318
0.000214319
0.000204306
0.000207654
0.000103095
0.00116624
0.000184125
0.00202848
0.00164694
0.00128529
0.000922198
0.000332123
0.000108732
0.000727877
0.00118284
0.00166805
0.00114088
0.000939104
0.000150934
0.000119893
8.13987e-05
7.24927e-06
0.000908323
0.000109792
0.00223973
0.00169704
0.0013235
0.000980175
0.000643994
0.000138634
8.72212e-06
0.000443103
0.000977887
0.00198419
0.00134288
0.000922147
0.000734578
9.27027e-05
4.46538e-05
4.6356e-06
0.00065307
5.76898e-05
0.00125543
0.0019472
0.00136939
0.00100913
0.000691552
0.000393031
1.45478e-05
0.00019781
0.00276921
0.00155784
0.00105632
0.000727703
0.000534638
3.76783e-05
1.52108e-06
0.000408039
3.12274e-05
0.00113318
0.000963712
0.00160769
0.00105064
0.000712233
0.000426898
0.000178181
3.37932e-05
0.00417825
0.00216848
0.00120487
0.000813255
0.000540884
0.000341863
1.0854e-06
0.000186948
0.00141741
0.000947406
0.000716631
0.00124652
0.000746526
0.000440616
0.000196619
2.72929e-05
0.00427368
0.00364285
0.00163182
0.000910873
0.000603426
0.000358465
0.000162512
2.63212e-05
0.0018398
0.00121073
0.000772523
0.00050729
0.000886758
0.000465213
0.000204862
3.21007e-05
0.00532743
0.0035085
0.00304079
0.00117562
0.000658923
0.000410188
0.000182419
2.42964e-05
0.00217773
0.00146717
0.00100063
0.000604832
0.000331423
0.000550662
0.000218686
3.5085e-05
0.00461684
0.00437185
0.0027203
0.00239696
0.000806607
0.000451677
0.000227785
3.48752e-05
0.00236272
0.00172914
0.00112093
0.000785354
0.000441655
0.000187983
0.000260364
3.95308e-05
0.0039922
0.00393991
0.0032656
0.00197042
0.00177538
0.000508051
0.000274864
6.33663e-05
0.00238552
0.00187166
0.00131698
0.000808136
0.000560843
0.000285437
7.84647e-05
5.33511e-05
0.003818
0.00335518
0.00329895
0.00213861
0.00131184
0.00120541
0.000284625
9.61635e-05
0.00222807
0.00189038
0.00142249
0.000947961
0.000533817
0.000326993
0.000130726
1.52155e-05
0.00377049
0.00320363
0.00268473
0.00268308
0.00119623
0.0008052
0.000701821
0.000121559
0.00186882
0.00177236
0.00143747
0.001022
0.000626242
0.000301699
0.000124395
1.38433e-05
0.00392906
0.00316318
0.00256928
0.00202922
0.00210564
0.000549671
0.000455722
0.00026629
0.0014273
0.00149031
0.00135219
0.00103345
0.000674088
0.000354724
0.000117245
9.38811e-06
0.00437765
0.00327596
0.00253546
0.0019514
0.0014171
0.00149698
0.000197799
0.000232855
0.00109242
0.00121613
0.00113908
0.000975078
0.000682228
0.000381309
0.000139625
9.3943e-06
0.00527727
0.00364285
0.00261064
0.00192476
0.00137185
0.000874617
0.000719213
5.08966e-05
0.00125136
0.000913507
0.00100257
0.000821977
0.000645288
0.00038636
0.000150524
1.31708e-05
0.00434431
0.00457054
0.0029039
0.00196909
0.00135213
0.000852202
0.000429079
0.000148404
0.00220863
0.000961919
0.000746218
0.000784769
0.000543505
0.000366315
0.000152846
1.51733e-05
0.00424269
0.00363906
0.00381544
0.00216985
0.00137379
0.00083853
0.00041865
0.00012455
0.00202466
0.00191165
0.000713168
0.000585212
0.000558059
0.000307638
0.000144953
1.56538e-05
0.00261965
0.00368669
0.00291052
0.00305434
0.00148393
0.00084668
0.000410295
0.000120061
0.00194526
0.00168949
0.00157262
0.000503684
0.000427459
0.000324366
0.000120221
1.42486e-05
0.00189691
0.00202233
0.00306075
0.0022132
0.0023212
0.000885414
0.000411126
0.000115724
0.00187622
0.00161785
0.00135864
0.0012149
0.000328705
0.000275834
0.000123398
1.00552e-05
0.00165665
0.00148238
0.00151844
0.00242988
0.00158029
0.00163533
0.000421798
0.000113364
0.00181152
0.00156266
0.00129529
0.00103901
0.00086163
0.000186338
0.000125344
9.38956e-06
0.00141872
0.00132875
0.00113606
0.00109746
0.0018102
0.00101877
0.000945992
0.00012647
0.00191329
0.00186856
0.00150147
0.00125165
0.000984478
0.000736112
0.000533209
7.71242e-05
1.25971e-05
0.00139199
0.00115819
0.00105003
0.000841206
0.000746812
0.00123756
0.000558151
0.00023695
0.00137001
0.00179336
0.00159702
0.00119072
0.00095158
0.000692439
0.000457074
0.000249941
1.39648e-05
0.00161553
0.00115774
0.000937481
0.000820505
0.000598864
0.00043763
0.000659523
0.000213908
0.000565716
0.00120786
0.00119358
0.00165773
0.00131047
0.000896198
0.000669356
0.00042604
0.000213231
4.94516e-05
0.00140793
0.000942345
0.0007366
0.000616222
0.000407377
0.00021953
0.000143657
0.000408098
0.000501374
0.00116314
0.00101653
0.000985537
0.00150877
0.00100966
0.000624275
0.000411441
0.000196408
3.72666e-05
0.000630437
0.000940806
0.00116918
0.000736956
0.00054602
0.000424899
0.0002487
8.27575e-05
0.000279898
0.000399571
0.000994816
0.000819451
0.000762988
0.00134487
0.000710758
0.000380242
0.000188118
3.21252e-05
0.000523459
0.000815839
0.000914569
0.000536581
0.0003618
0.000235155
8.95064e-05
0.000183368
0.000308763
0.000814231
0.000623507
0.000537587
0.00116068
0.000430454
0.000171682
2.93624e-05
0.000418998
0.000677274
0.00065985
0.000343238
0.000183986
6.41735e-05
0.000109719
0.000231058
0.000627629
0.000434799
0.000321843
0.000953828
0.000189849
2.53494e-05
0.000317754
0.000528753
0.000413388
0.000163433
3.58545e-05
5.94095e-05
0.000163904
0.000441725
0.000258551
0.000132435
3.08815e-05
0.00022057
0.000376406
0.000190172
2.46944e-05
3.2233e-05
0.000101571
0.00026361
0.000103705
1.30158e-05
0.000130302
0.000226751
2.73571e-05
4.18978e-05
0.000105303
7.69244e-06
4.96135e-05
9.05138e-05
1.35894e-06
7.52835e-06
1.96842e-06
5.85666e-06
0.000739589
0.000739076
0.000740651
0.000740893
0.000741773
0.000740959
0.000741171
0.000742204
0.000740033
0.000738884
0.000740174
0.000740615
0.000741479
0.000741394
0.000742125
0.000744855
0.000758748
0.000764191
0.000768437
0.000778224
0.000781904
0.00074401
0.000747462
0.00074185
0.000743743
0.000742499
0.000740715
0.000742164
0.000743583
0.000741023
0.000794415
0.00079866
0.000740014
0.000740072
0.000740965
0.000741166
0.000742291
0.000742077
0.000745551
0.000748093
0.000751255
0.000753308
0.000756728
0.000764486
0.000772333
0.000775321
0.000789911
0.0007941
0.000819092
0.000820834
0.00075011
0.000753167
0.00075579
0.000759568
0.000764056
0.000771615
0.000780773
0.000743739
0.000747903
0.000741632
0.000742635
0.000742636
0.000740893
0.000743437
0.000744626
0.000742381
0.000778158
0.000786104
0.000840306
0.000849154
0.000808692
0.000808703
0.000833462
0.000739863
0.000740623
0.000741234
0.000742452
0.000743881
0.000745471
0.000749466
0.000751045
0.000758038
0.000760027
0.000764997
0.0007701
0.00078497
0.00079081
0.000809505
0.000808544
0.000831289
0.000834508
0.000860088
0.000869384
0.000905667
0.000899526
0.000922251
0.000747039
0.000751966
0.000753487
0.000758216
0.000763796
0.000743759
0.000746852
0.00074163
0.000741952
0.00074358
0.00074155
0.000744497
0.000744468
0.000744745
0.000763723
0.000779927
0.000780868
0.000803409
0.000811447
0.0009058
0.000853436
0.00089221
0.000835725
0.000850517
0.000742887
0.000743163
0.000745436
0.000746173
0.000750084
0.00075068
0.000757468
0.000756203
0.000766233
0.000762433
0.000775972
0.000779492
0.000816972
0.000814338
0.000831277
0.00083339
0.000857298
0.000865838
0.000885623
0.000896598
0.000950423
0.000951619
0.000999032
0.00101817
0.000982058
0.00102449
0.00103096
0.00122726
0.000746523
0.000751759
0.000753079
0.000756987
0.00074594
0.000745379
0.000743833
0.000746526
0.000742155
0.000741971
0.000744434
0.000743745
0.000742001
0.000746274
0.000745148
0.000760924
0.000772104
0.000780787
0.00152386
0.00134657
0.00149726
0.000800635
0.000803177
0.000830956
0.000844684
0.000906318
0.000918908
0.00106675
0.000971787
0.000861482
0.000909687
0.000750722
0.000748107
0.000754238
0.000750801
0.000759234
0.000755015
0.000764822
0.00076169
0.000765948
0.000771309
0.000780712
0.000783789
0.000793384
0.000818552
0.000845106
0.000821406
0.000849899
0.000970645
0.000969426
0.000963399
0.00102944
0.00202967
0.00209591
0.00175527
0.00117892
0.00117949
0.00129796
0.00124824
0.00125115
0.00137785
0.0013886
0.00187008
0.00156606
0.00355224
0.00332322
0.00339974
0.00210687
0.00299661
0.00280594
0.00246339
0.00212369
0.000746578
0.000750824
0.000750461
0.000755441
0.000744146
0.000743568
0.00074395
0.000745655
0.000742595
0.000742563
0.000742172
0.000746426
0.00074544
0.00074428
0.000743668
0.000760299
0.000774185
0.000803163
0.000781942
0.000798298
0.00366321
0.00367486
0.00284315
0.00272408
0.00214507
0.00111777
0.00136937
0.0015624
0.00192414
0.00083778
0.000839268
0.000848284
0.00084787
0.000890932
0.000903508
0.000986123
0.000977119
0.00105839
0.00363312
0.00342512
0.00126164
0.00328251
0.0028849
0.00263664
0.00148424
0.00179077
0.0018923
0.00263105
0.00077986
0.000766924
0.00078309
0.000769544
0.000785466
0.000774298
0.000788918
0.000789422
0.000798225
0.000796149
0.000810808
0.000811102
0.000850718
0.000875871
0.00092936
0.000901792
0.00112476
0.00133283
0.00110247
0.00173836
0.00142698
0.00132795
0.00162982
0.00146207
0.00143836
0.00252842
0.00305372
0.00350344
0.00304534
0.00267821
0.00227947
0.00180808
0.00167402
0.00184285
0.00201116
0.002598
0.00190404
0.00203984
0.0034848
0.0035501
0.00361272
0.00369943
0.00356999
0.0034034
0.00329248
0.00330257
0.0013859
0.00136691
0.00284757
0.00297161
0.00153388
0.00160468
0.00191215
0.00254643
0.00207325
0.00240976
0.000746573
0.000749738
0.000749109
0.000758477
0.000743209
0.000742992
0.000742975
0.000743889
0.000745188
0.000746442
0.000745198
0.000744522
0.000743516
0.000743389
0.000743107
0.00075855
0.000774483
0.000775742
0.000795315
0.0007991
0.000827028
0.00079421
0.00349723
0.00374802
0.00338343
0.00371045
0.00365106
0.00274286
0.00332358
0.00262629
0.00215005
0.000838094
0.00192084
0.00117812
0.001742
0.00136967
0.000880662
0.000874486
0.000900114
0.000888584
0.000922749
0.000909474
0.00103513
0.00101771
0.00117657
0.00369722
0.00339333
0.00375751
0.00113375
0.00120565
0.000952391
0.0032389
0.00280116
0.00265927
0.00180215
0.00114214
0.00157861
0.000621296
0.000829247
0.00386399
0.00129102
0.000686057
0.000845073
0.000778597
0.000877799
0.000863767
0.000902948
0.000940314
0.000879453
0.000870197
0.000944641
0.000951154
0.00115077
0.00122169
0.00165794
0.00132358
0.0017453
0.00135867
0.00132071
0.00176789
0.00148365
0.0016078
0.00186858
0.00223634
0.00184398
0.00156178
0.00203041
0.00180992
0.00215246
0.00203273
0.00274166
0.0031478
0.00354059
0.00335289
0.00294901
0.00246933
0.00247809
0.00227103
0.00280537
0.00231858
0.00251922
0.00360707
0.00349863
0.00368513
0.00355563
0.00362701
0.00333156
0.00339052
0.00287818
0.00312551
0.00303484
0.00146096
0.00162585
0.00247865
0.00263932
0.00227157
0.00215562
0.00196176
0.000757563
0.000746428
0.00074885
0.000748625
0.000743112
0.000743739
0.000744833
0.000759364
0.000745965
0.000744883
0.000744501
0.000743737
0.000743854
0.000743355
0.000743828
0.00074391
0.000746843
0.000745109
0.000744489
0.000748486
0.000748046
0.000750369
0.000772584
0.000773795
0.0007766
0.000785888
0.000841697
0.000813504
0.000813992
0.000797219
0.00381276
0.00380591
0.0035396
0.00244439
0.00335127
0.00284316
0.000870424
0.000903272
0.000928746
0.00241425
0.00142189
0.00227015
0.00153745
0.000937366
0.000924333
0.00100471
0.000988385
0.00116
0.001173
0.00134024
0.00376698
0.00378156
0.00357358
0.00387823
0.0039256
0.00339509
0.000839972
0.000904518
0.000674474
0.00293962
0.00271247
0.00207875
0.00150878
0.000864534
0.00909972
0.00821256
0.00217132
0.000903836
0.00742713
0.00528183
0.00139154
0.000908645
0.001148
0.00091163
0.00107603
0.000993699
0.00112768
0.00126859
0.00124418
0.00176711
0.00180535
0.00150567
0.00223721
0.00173132
0.00194948
0.00250685
0.0024718
0.00270153
0.00222123
0.00239176
0.00258313
0.00287042
0.00222828
0.00242699
0.00264708
0.00234666
0.00273309
0.00243564
0.00348774
0.00319314
0.00339267
0.00330591
0.00307402
0.00305364
0.00318714
0.00305977
0.00297716
0.00365257
0.00349423
0.00341744
0.00352633
0.00349064
0.00302797
0.00328105
0.00257294
0.00277319
0.00215364
0.00228743
0.000756057
0.00075308
0.000749741
0.000756926
0.000744114
0.000746012
0.000747559
0.000755089
0.000761063
0.000745236
0.00074422
0.000744299
0.000743615
0.000744
0.000743631
0.000744639
0.000744799
0.000748054
0.000742032
0.000747125
0.00074847
0.00075102
0.000752569
0.000770427
0.000774758
0.000786242
0.00079517
0.000866077
0.000842007
0.00084004
0.000812695
0.00317607
0.00330755
0.00384318
0.000924208
0.000946815
0.000938377
0.00104677
0.000983829
0.00233363
0.00297659
0.00164958
0.00209648
0.00138809
0.0012887
0.00170619
0.00167666
0.00149774
0.00370199
0.00391644
0.00394085
0.00374229
0.00374645
0.00351671
0.00303001
0.00276373
0.000616007
0.000704413
0.00239328
0.00188313
0.00145908
0.000787943
0.00915367
0.0103071
0.00382691
0.00830534
0.010175
0.00984345
0.00550973
0.00340421
0.00942718
0.00895597
0.00456697
0.00252692
0.00352371
0.00204338
0.0029386
0.00185569
0.00251747
0.00252329
0.0020372
0.00300028
0.00263527
0.00261658
0.00252004
0.0026507
0.00315473
0.00306909
0.00311554
0.00334481
0.0030653
0.00279479
0.00323984
0.00341998
0.00288878
0.00317147
0.00338475
0.00308275
0.00338531
0.00361066
0.00345819
0.00359904
0.00346823
0.00357044
0.00344447
0.00345064
0.00347558
0.00355063
0.00354208
0.00315443
0.00337502
0.00269568
0.0028475
0.00216579
0.00232812
0.000759238
0.000756839
0.000756165
0.000753957
0.000749327
0.000750117
0.00075388
0.000759941
0.000764764
0.000746978
0.000741819
0.000746828
0.000742308
0.000748227
0.000744793
0.00075046
0.000746286
0.000747634
0.000749189
0.000750655
0.000752757
0.000754043
0.000775763
0.000777418
0.000786682
0.000816045
0.000803247
0.000780936
0.000912124
0.000872421
0.000876089
0.000845779
0.000952961
0.00382932
0.00337782
0.000977394
0.000937518
0.00119414
0.00115942
0.00177498
0.00218043
0.00223433
0.00211189
0.00305076
0.00257633
0.00227256
0.00251454
0.0023502
0.00394768
0.00414207
0.00377639
0.00396549
0.00323681
0.00293325
0.00237416
0.00219104
0.00188976
0.00179597
0.000607531
0.00134824
0.00767586
0.00987865
0.00229552
0.00576143
0.00967011
0.0106805
0.00857524
0.00738782
0.0107102
0.0102592
0.00694938
0.00582197
0.00571897
0.00380044
0.00439535
0.00351502
0.00316349
0.00331374
0.00416044
0.00345018
0.00393249
0.00334457
0.00360685
0.00363585
0.00388114
0.00378613
0.00375749
0.00362531
0.0035674
0.00335288
0.00366509
0.00381423
0.00345272
0.00361693
0.00372666
0.00359424
0.0037066
0.00358728
0.00354869
0.00355177
0.00364223
0.00363194
0.0036192
0.00326306
0.00342272
0.00276591
0.00293834
0.00222355
0.00239965
0.000788439
0.000663983
0.000759282
0.000760242
0.000759202
0.000757619
0.000756803
0.000754806
0.000755973
0.000758356
0.000763599
0.000763891
0.000780533
0.000747284
0.00074668
0.000748048
0.000748547
0.000751144
0.000749146
0.000750006
0.00075179
0.000753115
0.000754001
0.000755743
0.000775804
0.00079968
0.000802617
0.000848902
0.000793165
0.000799828
0.000950816
0.000896418
0.000905338
0.000851505
0.00101135
0.00115554
0.000902085
0.00389714
0.00373802
0.00191989
0.00161223
0.00243036
0.0031935
0.00318593
0.00282815
0.00299705
0.00342696
0.00363537
0.00305413
0.00384547
0.00446742
0.00305112
0.00354319
0.0025485
0.00224967
0.00181573
0.0016687
0.000595434
0.00090656
0.00597539
0.00920843
0.00156147
0.00343644