/*--------------------------------*- C++ -*----------------------------------*\
  =========                 |
  \\      /  F ield         | OpenFOAM: The Open Source CFD Toolbox
   \\    /   O peration     | Website:  https://openfoam.org
    \\  /    A nd           | Version:  8
     \\/     M anipulation  |
\*---------------------------------------------------------------------------*/
FoamFile
{
    version     2.0;
    format      ascii;
    class       volScalarField;
    location    "11000";
    object      epsilon;
}
// * * * * * * * * * * * * * * * * * * * * * * * * * * * * * * * * * * * * * //

dimensions      [0 2 -3 0 0 0 0];

internalField   nonuniform List<scalar> 
4109
(
0.117468
0.131144
0.120867
0.129886
0.135541
0.131509
0.136725
0.120776
0.145299
0.145121
0.143158
0.147259
0.120016
0.1347
0.139663
0.150927
0.151603
0.150014
0.151986
0.14115
0.121785
0.130575
0.131762
0.158831
0.160146
0.165315
0.120039
0.133818
0.118557
0.160476
0.149185
0.143121
0.132609
0.131279
0.137936
0.163076
0.164099
0.176558
0.137236
0.11972
0.134456
0.137051
0.122419
0.166563
0.154522
0.552363
0.250704
0.148882
0.143816
0.132456
0.138995
0.170777
0.178451
0.192212
0.150435
0.137695
0.117443
0.135028
0.139376
0.147637
0.144066
0.676746
0.177315
0.163067
0.157181
0.21451
0.55236
0.151029
0.143465
0.143799
0.207831
0.184805
0.236317
0.227419
0.224585
0.155883
0.155606
0.143994
0.134867
0.144295
0.140623
0.14355
0.149293
0.152085
0.182479
0.249386
0.590826
0.800463
0.810409
0.188968
0.184677
0.169517
0.163121
0.157874
0.189038
0.422795
0.151273
0.144028
0.237085
0.220717
0.209839
0.242332
0.248356
0.245916
0.251896
0.165716
0.161249
0.15555
0.141138
0.154475
0.207957
0.147207
0.151786
0.154743
0.161337
0.81948
0.302867
0.401538
0.566598
0.895531
0.847017
0.251413
0.206332
0.194386
0.17885
0.172038
0.165672
0.157374
0.429652
0.162602
0.15482
0.241512
0.227104
0.260361
0.251883
0.27434
0.256568
0.172096
0.169837
0.169528
0.155083
0.160974
0.211044
0.152184
0.157548
0.16278
0.166805
0.798264
0.474368
0.916127
0.599106
0.925793
0.284634
0.214462
0.20367
0.186773
0.17915
0.172491
0.166187
0.159653
0.415385
0.14945
0.235695
0.221824
0.269644
0.248224
0.279166
0.283649
0.300085
0.182715
0.178209
0.176982
0.163942
0.169643
0.226694
0.159222
0.165603
0.16892
0.17677
0.556329
0.972205
0.579926
1.00925
0.984637
0.313298
0.197387
0.207055
0.188715
0.172229
0.180788
0.17054
0.473862
0.155963
0.219138
0.230588
0.263616
0.24429
0.278158
0.297222
0.296313
0.338056
0.190362
0.188165
0.18948
0.177746
0.171334
0.228516
0.165789
0.171663
0.177974
0.18381
0.602776
1.0537
1.07891
0.666262
1.09663
0.310781
0.198463
0.210152
0.184847
0.178416
0.496603
0.168718
0.221466
0.234392
0.257909
0.247681
0.273648
0.29623
0.311801
0.335234
0.375038
0.202441
0.19697
0.196599
0.189104
0.178955
0.241348
0.179825
0.17246
0.211962
0.185977
0.194915
0.591055
1.15132
0.698353
1.19321
1.19334
0.329092
0.200871
0.208844
0.190326
0.54731
0.171992
0.224059
0.234168
0.26209
0.25034
0.277486
0.289834
0.315064
0.338442
0.362229
0.422392
0.213116
0.205305
0.202633
0.222026
0.181136
0.245364
0.184168
0.225184
0.203814
0.196864
1.24157
0.615533
1.29074
0.76687
1.32874
0.338585
3.64985
0.202894
0.215118
0.577125
0.1789
0.223586
0.237632
0.26306
0.249422
0.279759
0.293522
0.308307
0.33749
0.364643
0.402126
0.412958
0.47906
0.210092
0.219835
0.203514
0.234338
0.236735
0.186849
0.255212
0.199698
0.216297
0.207086
0.639383
1.36607
1.41534
0.770288
1.44491
0.353688
4.40738
3.87582
4.60697
3.18424
3.9592
2.78974
0.751802
0.187755
0.231893
0.23845
0.254165
0.252566
0.267561
0.280591
0.294009
0.311392
0.42399
0.327688
0.361238
0.397176
0.478459
0.541667
0.510046
0.617858
0.231728
0.225024
0.247546
0.251647
0.227122
0.199408
0.271791
0.207346
0.219421
0.699131
1.52043
1.50327
0.357066
9.80429
7.17486
4.72242
3.39321
4.36372
5.47821
0.724371
0.718617
0.810411
3.02079
2.61985
2.79068
2.54537
2.91514
1.38713
0.219226
0.305987
0.287328
0.273939
0.464694
0.284907
0.295613
0.311873
0.330418
0.42252
0.349641
0.387942
0.533201
0.479672
0.58986
0.576224
0.721148
0.806613
0.248663
0.251309
0.265023
0.264859
0.241316
0.231316
0.209936
0.269354
0.223009
0.789596
1.81162
10.1273
7.33936
3.60962
4.35717
5.52844
0.787731
0.840137
0.920336
0.843768
0.898342
2.13266
2.32175
2.24651
2.52334
2.99091
2.06876
1.18201
0.318471
0.32854
0.292149
0.454859
0.47188
0.310683
0.308342
0.329141
0.351503
0.414618
0.373177
0.542322
0.509188
0.595643
0.647278
0.729696
0.766512
0.276543
0.265319
0.232793
0.293498
0.281783
0.254491
0.245423
0.319437
0.236783
0.224544
0.330636
0.867978
9.84249
11.2001
7.49129
3.58597
4.45296
5.70717
0.830641
1.00247
1.18956
0.939052
1.02763
1.82948
1.47207
0.933202
1.00112
1.9927
2.18588
2.5446
2.95255
2.48318
2.13108
0.605213
0.345411
0.325284
0.44396
0.473825
0.325193
0.328341
0.349737
0.374207
0.400022
0.553597
0.513289
0.605108
0.660802
0.698565
0.758244
0.302253
0.319378
0.295075
0.248684
0.249057
0.270971
0.286962
0.259836
0.334763
0.307203
1.72598
2.49493
0.241294
0.235146
10.2517
7.29755
7.04484
11.4057
7.76151
3.63366
4.54875
5.91913
0.912761
0.805852
1.07055
1.20277
1.13502
1.4044
1.66362
1.0369
1.12286
1.90799
2.14635
2.52699
3.06518
3.27095
3.08744
3.87749
0.641541
0.4098
0.34828
0.429296
0.462463
0.350677
0.346672
0.370388
0.400717
0.498965
0.540404
0.586574
0.63925
0.693383
0.739234
0.773232
0.33738
0.335561
0.262452
0.261986
0.276741
0.293221
0.312759
0.358075
0.327079
0.26437
0.361021
0.458479
10.664
7.53975
6.47381
4.31497
4.3917
11.5843
7.60072
3.7155
4.14697
4.95762
1.00671
0.876719
0.838714
1.61549
1.25986
1.35025
1.15896
1.24828
1.86929
2.11717
2.63669
3.13222
0.944732
3.87785
3.92218
4.47731
0.854043
0.455403
0.38679
0.429775
0.462374
0.371143
0.373322
0.398424
0.498412
0.539005
0.584337
0.635693
0.680297
0.713927
0.770654
0.782891
0.376176
0.37787
0.283054
0.282784
0.298944
0.315767
0.331772
0.385257
0.349436
0.332945
0.283582
0.302712
10.4477
3.29171
6.16611
5.39711
4.35535
11.7404
7.70914
3.51002
4.33029
5.22201
6.51452
1.11569
0.862337
0.976294
0.867314
1.29764
1.56127
1.41971
1.87386
2.27455
2.71537
2.99761
0.994395
4.63649
4.81289
5.59043
0.963837
0.532628
0.421882
0.46009
0.42606
0.396681
0.401697
0.49467
0.535264
0.627015
0.578132
0.667738
0.709719
0.711793
0.759965
0.823953
0.421507
0.407905
0.417834
0.304296
0.303464
0.33032
0.34941
0.372163
0.364652
0.306072
0.349506
10.9353
7.30173
2.47821
2.7169
4.9653
4.35675
3.59392
8.10778
11.6782
3.65402
4.28726
5.04612
6.20935
1.23862
0.892837
1.06792
0.919246
0.979825
1.46353
1.57339
1.37164
1.94505
2.32959
2.63831
3.13335
1.47398
5.55475
5.89884
6.5148
1.20705
0.610472
0.44469
0.463032
0.429008
0.42959
0.502863
0.534682
0.617392
0.580799
0.681159
0.711792
0.749129
0.798986
0.857109
0.474619
0.456775
0.45167
0.400132
0.330298
0.332456
0.351184
0.365319
0.381388
0.330777
0.412419
11.7556
8.623
6.4432
5.50839
1.92308
2.16862
2.59469
4.1624
3.56008
3.08902
1.56117
8.09184
11.4655
11.6747
3.6375
4.28798
5.73851
5.04662
1.19567
0.943883
1.04419
0.973716
1.51542
1.70893
1.33248
3.13816
2.00076
2.24162
2.7031
1.59802
6.75801
7.27367
8.13403
0.473427
1.44721
0.631116
0.466626
0.46659
0.553997
0.531776
0.63635
0.64375
0.598481
0.691274
0.752918
0.811264
0.537123
0.500036
0.485586
0.428653
0.414887
0.351332
0.347284
0.371955
0.394283
0.355384
0.440639
0.617021
0.702066
8.36457
6.67936
5.12869
4.42389
1.77569
2.19127
2.62916
3.42764
2.94203
1.4646
1.24731
1.07337
0.86072
0.799973
10.8309
7.80641
10.8555
8.13343
3.16462
3.67723
4.21667
5.60405
1.17294
0.996241
1.0563
1.72703
1.52246
1.33607
1.26962
2.69359
2.68788
1.97713
2.33248
1.9547
9.22552
8.37634
9.37225
0.665797
1.55715
0.501347
0.557591
0.639125
0.583224
0.68667
0.732799
0.786203
0.541475
0.520549
0.46288
0.440208
0.418149
0.380345
0.375293
0.39912
0.513473
0.384194
0.741298
0.619381
0.680215
6.409
5.41963
4.19619
3.58392
1.79217
2.24733
2.47653
2.82512
1.57428
1.23732
1.30377
0.760503
1.04561
0.825783
0.900504
8.01285
6.67113
6.2525
5.15083
3.00251
3.52707
4.60312
2.63039
1.13366
1.0573
1.64541
1.40684
1.532
1.36024
1.22197
2.36244
2.40651
2.00183
1.80409
11.3059
10.5279
11.365
1.07698
1.74692
0.552614
0.325137
0.635609
0.700505
0.759609
0.561334
0.49899
0.479266
0.452833
0.426529
0.403017
0.396361
0.462746
0.401859
0.691125
0.616146
5.04643
5.20355
4.42532
3.43665
2.91191
1.92208
2.12035
2.36741
1.64355
1.45871
1.28052
0.768993
0.819099
1.128
0.891278
0.984568
5.79421
5.17641
5.13596
4.29851
2.32756
3.11933
3.40962
2.69069
4.32648
1.1215
1.72947
1.56774
1.47289
1.30098
1.19121
1.80687
1.99252
2.03128
1.84987
15.1855
13.6382
15.6493
3.07307
0.617817
0.901292
0.681399
0.743252
0.54147
0.513413
0.483969
0.459919
0.433654
0.429523
0.47176
0.437827
0.676729
0.587682
4.25038
4.32604
3.54113
2.79965
2.41798
1.82953
2.01411
1.58802
1.39072
1.23524
0.73914
0.801274
1.10345
0.887542
0.980629
4.27265
4.13339
3.34532
1.89333
2.0972
2.38375
2.6044
3.55148
1.50034
1.37258
1.25155
1.64509
1.58003
1.79791
2.64478
20.8832
27.3968
9.45257
0.677892
1.11701
0.739187
0.560257
0.525762
0.4952
0.462848
0.458289
0.50635
0.641493
0.605448
3.51507
3.45936
2.81686
2.32353
2.05179
1.73467
1.51063
1.32712
1.17599
0.701314
0.770843
1.04884
0.849662
0.941949
3.40615
3.40176
2.78919
1.95536
2.1278
2.30828
1.81823
2.82758
1.41158
1.30883
1.50971
1.54038
1.67697
4.70936
46.1612
45.499
21.3387
0.754546
2.34298
0.566036
0.536536
0.49404
0.502083
0.618585
0.66322
0.617523
2.83005
2.81309
2.33797
1.98757
1.76636
1.53933
1.35298
1.20186
0.722681
0.795328
1.07356
0.873576
0.967578
2.78428
2.77103
2.32925
1.85494
1.98324
1.68678
2.347
1.35724
1.43021
1.45601
1.52722
1314.59
10.0966
77.93
81.0471
51.3555
1482.16
0.57955
0.541244
0.55647
0.553664
0.848804
0.669739
0.63024
2.30199
2.32658
1.99986
1.72339
1.50583
1.33252
1.18733
0.734069
0.800822
1.07025
0.880699
0.966507
2.21336
2.23581
1.98269
1.6831
1.53066
1.95586
2.00959
1105.69
1207.66
23.4071
139.872
140.025
1582.07
1368.83
1951.55
0.594757
0.541556
0.613941
0.61064
1.41842
0.685712
0.625129
2.01128
2.00478
1.7267
1.50891
1.33495
1.1959
0.749651
0.819722
1.08029
0.982876
0.896165
1.97308
1.75619
1.5274
1.74006
1.81119
1.77997
765.311
976.103
1147.99
53.4563
1532.9
1304.32
1833.57
1961.8
0.621457
0.617017
0.683077
3.05412
0.69939
0.634824
1.67086
1.68281
1.48697
1.32162
1.19071
0.75048
0.83217
1.08565
0.991898
0.909468
1.76057
1.57274
1.623
1.65276
1.63803
1.61587
713.737
612.018
896.957
1138.72
1897.34
1679.29
1524.22
1292.57
1911.25
1981.08
0.660365
0.681187
0.756227
0.681867
0.700274
0.740029
1.54804
1.37306
1.2523
1.13419
0.810666
0.822037
1.06372
0.964322
0.918441
1.57055
1.5248
1.52905
1.50797
1.48163
557.987
507.663
864.089
1195.17
2190.9
1964.86
1473.62
1725.46
1572.54
1349.35
2039.12
2022.6
0.695958
0.723826
0.739424
0.761958
0.822633
1.45043
1.33284
1.23496
1.13747
0.853095
0.878239
1.06159
0.99051
0.932834
1.42033
1.38876
1.34338
2455.77
445.489
441.089
884.205
1369.71
2212.66
2138.05
1260.2
1496.11
1817.23
1713.76
1528.1
2269.07
2098.66
0.726071
0.752561
0.787718
0.820088
1.3213
1.27177
1.20442
1.13311
0.866003
0.909151
1.06606
1.0083
0.95381
2922.51
2425.62
366.556
407.092
990.19
1881.85
2276.88
2426.24
1155.79
1260.43
1550.07
1968.61
2040.7
2051.57
2678.24
2236.99
3281.75
3047.97
2400.35
314.254
408.426
1333.7
4454.69
2421
2930.15
989.071
1163.34
1290.35
1654.65
2223.62
2896.12
4638.32
3463.35
2480.26
3394.92
3675.89
3101.96
2415.88
292.624
487.529
3078.85
2703.15
3777.03
876.885
999.886
1193.19
1365.63
1844.86
2686.64
6776.47
5315.42
3453.32
3907.32
4096.27
3120.48
2526.79
321.701
958.943
3284.3
5364.28
596.884
869.572
1048.54
1261.88
1514.68
2208.09
3718.01
12568.8
2795.91
3916.16
4585.12
4517.48
3182.62
2828.65
573.161
4693.74
129.289
537.033
868.495
1148.89
1397.44
1807.7
3042.61
7543.78
3063.38
3311.17
4523.56
5459.61
4926.42
3412.7
3636.97
10114.2
83.7188
121.442
493.364
873.623
1332.5
1665.96
2486.73
6174.45
2418.33
3583.46
4063.37
5417.52
6598.68
5399.38
4131.76
6822.89
91.1739
88.1426
117.576
463.012
887.918
1679.32
2289.57
4978.08
1335.51
2821.16
4207.63
5299.91
6782.58
8039.52
6296.87
7096.44
97.2206
99.1874
95.7613
118.784
447.06
922.946
2459.79
4556.45
1074.94
1555.14
3309.3
4971.08
7619.5
8912.58
9722.8
9536.49
97.6935
105.686
110.74
107.941
128.805
449.799
1032.76
5230.62
930.937
1167.94
1777.2
3984.12
5943.79
13015.6
12203.4
11296.1
92.3574
106.141
117.89
127.701
127.758
160.318
520.49
1298.83
947.17
1045.38
1274.97
2046.66
4979.02
7506.45
28330.1
10826.8
85.3088
100.281
118.327
135.867
154.166
163.411
249.578
1060.33
1074.9
1058.05
1172.19
1422.23
2424.81
6671.09
10984.9
78216
128.444
89.7412
111.806
136.295
164.023
200.822
246.348
662.637
1322.38
1177.35
1182.75
1334.86
1654.64
3036.22
12537.8
14123.5
577.326
121.148
97.4209
128.797
164.455
213.956
307.816
600.099
2509.02
1512.68
1295.13
1344.46
1575.78
2076.01
4243.26
65625.5
901.619
523.27
117.717
109.704
155.394
214.419
328.767
763.861
2907.13
2989.1
1681.02
1455.79
1585.3
1989.3
3005.45
8008.82
1000.67
888.295
481.799
119.339
129.699
202.384
329.369
817.119
2631.91
3323.48
3700.02
1848.21
1706.64
2000.55
2869.92
6045.16
1174.21
1015.59
885.507
451.996
129.953
165.666
310.211
817.214
3161.82
3013.17
3837.33
4947.07
2038.12
2151.58
2888.82
5717.26
1268.82
1185.45
1069.45
890.67
436.167
162.006
249.036
767.054
3264.16
3428.63
3457.81
4524.49
7430.73
2348.36
3114.95
5793.34
1486.14
1271.48
1220.42
1176.01
905.855
438.926
251.589
601.83
3228.91
3710.06
3700.04
4000.39
5541.26
12821.5
3461.44
6260.59
1705.82
1513.7
1305.32
1295.61
1367.8
943.879
509.518
662.102
2903.04
3603.99
4290.88
4069.79
4733.88
7219.4
25687.1
8594.98
2081.61
1891.1
1763.6
1573.76
1385.75
1439.9
1727.54
1057.48
1048.01
2436.58
3024.39
4007.57
5023.6
4577.94
5879.38
10095.8
65660
1696.93
2083.03
1987.32
1868.49
1684.71
1541.92
1722.45
2538.8
1341.2
2175.39
2406.42
3076.54
4416.62
6031.25
5406.06
8045.7
13146.2
1848.88
1532.27
1655.69
2103.83
2130.42
2033.06
1882.55
1847.7
2376.59
5421.33
2184.97
2379.98
3094.55
4823.85
7409.9
7322.17
14246.1
1912.64
767.253
1437.55
1435.17
1656.15
2149.82
2380.06
2303.2
2257.88
2553.16
4760.02
851.673
1214.15
2240.44
2393.12
3160.8
5311.84
9194.68
9403.25
2070.69
600.97
1323.28
1380.81
1716.74
2234.15
2818.31
2787.39
3117.22
5150.44
678.498
1084.32
2377.63
2500.38
3395.06
6243.12
11438.4
2344.04
480.556
1260.92
1379.11
1878.51
2385.35
3654.4
3857.11
6354.29
563.593
1004.06
2651.83
2796.99
4114.66
9527.19
2826.72
395.908
1254.49
1449.56
2243.02
2651.46
5632.05
7835.28
489.657
972.613
3217.37
3592.37
7032.08
3658.44
339.257
1321.38
1653.6
3195.02
13421.8
450.616
999.556
4587.34
6729.27
5226
314.832
1521.4
2238.23
7538.55
448.625
1121.92
9844.09
343.444
2101.46
5136.78
527.329
1509.35
610.762
4999.88
1009.04
3464.65
0.906037
0.866225
0.890946
0.890844
0.920104
0.916296
0.929834
0.929228
0.947147
0.833829
0.854742
0.862949
0.8867
0.893358
0.91658
0.926059
1.00138
1.02546
1.04921
1.08574
1.11302
0.946261
0.958975
0.945273
0.946322
0.954561
0.949069
0.973685
0.965989
0.992034
1.15622
1.17649
0.806152
0.828098
0.839604
0.861512
0.873026
0.892847
0.909468
0.929275
0.945681
0.964012
0.983346
1.00294
1.03238
1.05995
1.10875
1.13632
1.22562
1.24025
0.976863
0.991822
1.01139
1.02747
1.05185
1.07376
1.11444
0.972265
0.976754
0.974669
0.973638
0.992956
0.981215
1.02188
1.00876
1.04181
1.11406
1.14393
1.31079
1.33625
1.22353
1.2177
1.29945
0.786529
0.805908
0.822435
0.841347
0.858972
0.877608
0.897745
0.915313
0.94315
0.96379
0.989019
1.00884
1.07459
1.10127
1.14817
1.17118
1.24373
1.26821
1.34968
1.38634
1.48
1.49404
1.62753
0.999362
1.00867
1.02781
1.04396
1.06909
0.997951
0.999804
1.00857
1.00126
1.03385
1.01939
1.09376
1.06965
1.05299
1.07847
1.13793
1.14193
1.22512
1.25097
1.5723
1.36589
1.48746
1.31671
1.36252
0.775561
0.793403
0.813504
0.832533
0.85351
0.871553
0.894033
0.914401
0.935722
0.960873
0.991167
1.03231
1.16582
1.10852
1.21934
1.27171
1.34325
1.3649
1.45057
1.67602
1.72298
1.74172
2.01119
2.04338
1.94656
2.09074
2.09336
2.81307
1.02165
1.03131
1.04778
1.06375
1.14623
1.118
1.02625
1.02336
1.04387
1.03342
1.09658
1.07437
1.05995
1.19813
1.16828
1.08896
1.12836
1.15952
3.64587
3.07104
5.6783
1.23219
1.23541
1.32369
1.3551
1.61045
1.64137
2.30738
1.93677
1.55253
1.61938
0.781373
0.795371
0.820567
0.836516
0.863047
0.879695
0.90903
0.928996
0.991462
0.968599
1.04745
1.07447
1.16951
1.18598
1.36678
1.36452
1.54659
1.55927
1.73241
1.76379
1.94633
22.5935
21.1872
12.4913
2.00988
2.23322
2.40859
2.6771
2.95236
3.10196
3.09249
11.617
4.93197
1049.72
1328.25
1243.7
1827.5
1541.15
1655.96
1768.12
1836.86
1.04703
1.04918
1.07232
1.0864
1.14232
1.11815
1.05712
1.05061
1.10025
1.08145
1.07019
1.252
1.21984
1.18996
1.16376
1.10698
1.15424
1.25092
1.18757
1.24201
895.013
629.073
109.69
57.448
25.0173
2.45903
4.12796
5.43157
14.8923
1.36663
1.37225
1.3818
1.3725
1.59632
1.62978
1.77291
1.70704
2.28774
961.192
1258.27
1472.89
1399.3
1619.69
1764.56
1798.43
1857.41
1809.26
1760.48
0.872333
0.838179
0.902832
0.891124
0.949178
0.94142
0.999814
0.995716
1.05294
1.05079
1.12052
1.11914
1.23867
1.26957
1.32067
1.33803
1.16819
1.45749
1.27074
1.32035
2.81172
2.80792
3.38649
3.81298
3.72593
58.3857
94.1806
300.511
182.531
56.3512
39.1331
6.34714
8.39779
12.1478
11.449
36.1114
16.7665
14.8227
390.125
930.575
614.524
675.501
956.043
1183.41
1309.88
1303.26
1608.59
1596.78
1606.11
1519.19
1824.11
1883.79
1917.9
1741.64
1891.08
1811.77
1.07565
1.07597
1.097
1.11292
1.14477
1.12134
1.10973
1.09199
1.0817
1.30377
1.26924
1.23593
1.20897
1.18381
1.1606
1.12803
1.17412
1.18089
1.24311
1.24814
1.31016
1.24034
185.246
492.08
331.531
848.225
525.143
92.2469
198.242
70.5743
23.6644
1.37254
17.4353
3.04745
6.29102
4.36718
1.54928
1.48279
1.66901
1.56292
1.70488
1.69284
1.93635
1.79925
3.06241
949.686
1332.26
846.836
1460.93
1650.78
1261.05
1490.08
1771.99
1777.08
1795.17
1616.04
1797.4
5.17012
1.16066
103.705
29.1476
2.42408
1.18762
1.78971
1.13825
1.48458
1.09179
1.32571
1.29393
1.24813
1.40578
1.37206
1.61045
2.29383
1.44945
2.74484
4.13736
4.25774
7.77669
22.2831
8.64584
9.28952
39.285
42.6593
14.8778
13.5974
19.07
19.9681
26.6802
28.3084
122.081
185.497
344.709
238.078
132.757
83.7279
49.3219
54.217
99.0991
66.7203
73.0007
608.491
480.466
648.905
963.353
854.32
1267.38
1172.29
1578.55
1415.6
1475.63
1678.86
1847.61
1773.72
1672.7
1856.57
1938.3
1945.46
1.13369
1.10419
1.102
1.12192
1.14425
1.1257
1.11747
1.1462
1.3585
1.32211
1.28275
1.25211
1.22405
1.19715
1.1811
1.15871
1.40807
1.35052
1.40941
1.46357
1.42428
1.45732
1.1985
1.1941
1.20087
1.22592
1.38782
1.29613
1.33386
1.25649
505.758
397.204
234.236
35.562
172.51
96.0579
1.46919
1.75463
1.68474
44.9252
4.36944
12.5481
7.75316
1.97919
1.89824
2.08191
2.01012
2.40366
2.10036
5.13744
465.835
1040.81
1313.4
901.375
645.823
1472.85
1208.11
1518.19
992.203
1796.41
1840.67
1923.18
1805.33
1665.72
222.277
246.287
58.9989
11.5558
252.71
218.877
30.4859
11.1312
21.3185
6.40781
13.4806
4.23992
9.34316
2.35312
4.41488
10.0706
30.2864
18.3816
37.3233
20.0322
26.5682
65.07
101.777
111.562
56.9189
53.9435
120.644
137.448
62.5565
70.1349
95.1533
96.2253
126.471
103.6
402.433
215.679
290.849
268.995
210.88
189.663
238.94
141.093
220.593
715.45
527.25
1197.71
937.092
1045.66
1487.61
1333.54
1675.75
1590.69
1779.72
1720.99
1.43958
1.40581
1.131
1.14783
1.15066
1.13509
1.13312
1.15844
1.1749
1.32593
1.28102
1.2634
1.22853
1.21535
1.18978
1.18098
1.16283
1.3706
1.33306
1.3531
1.37933
1.33166
1.36311
1.19353
1.20233
1.21629
1.26485
1.52
1.37763
1.40766
1.31021
91.7021
191.345
291.442
1.63436
1.94039
1.90532
2.34453
2.31546
23.6719
102.254
7.07153
21.6043
2.57522
2.33216
3.99808
2.97973
8.19984
314.323
604.404
518.007
1137.45
1171.76
1386.72
1802.06
1939.5
1030.5
1658.66
2063.15
2000.66
2022.07
1875.16
223.1
198.718
102.358
249.129
231.568
290.709
234.683
151.644
319.668
395.977
225.187
107.5
175.433
66.791
124.812
50.8127
65.8295
89.107
64.3507
143.244
110.964
103.024
103.666
113.175
219.913
241.701
259.821
295.889
188.746
181.472
321.612
339.337
206.517
226.598
290.393
283.398
325.107
552.348
456.73
517.3
358.68
458.249
467.907
415.27
503.808
1028.91
827.372
1386.23
1239.62
1595.02
1516.27
1676.98
1611.73
1.48239
1.42109
1.37562
1.34151
1.16679
1.16267
1.16433
1.17396
1.192
1.29984
1.27313
1.24797
1.22833
1.20848
1.1949
1.18532
1.29692
1.31646
1.27661
1.30357
1.27943
1.30286
1.20882
1.20912
1.23828
1.3304
1.25376
1.21362
1.68085
1.52436
1.54336
1.41753
1.81476
234.309
140.637
2.20799
2.22131
2.53969
2.60359
3.44143
4.09957
2.53434
26.7074
127.261
31.9222
9.78933
6.30332
28.6087
587.843
389.227
1298.62
1036.63
1762.1
1888.38
2168.13
2180.8
2255.08
2141.41
6.54896
33.2123
256.867
280.887
64.4824
236.918
310.734
252.147
417.659
447.123
256.888
338.186
455.195
436.258
454.392
299.521
376.792
278.14
242.535
228.045
388.278
290.892
400.941
332.473
340.496
455.512
502.954
502.847
531.408
448.485
427.722
379.672
594.461
611.963
472.948
491.77
631.941
628.653
821.006
927.444
805.231
768.214
834.101
745.643
807.027
1283.37
1180.91
1453.75
1385.28
1492.96
1430.91
0.890023
1.6123
1.49827
1.4598
1.41379
1.35988
1.32535
1.29072
1.18097
1.18322
1.18243
1.18492
1.21501
1.26199
1.24581
1.22486
1.21286
1.1985
1.23197
1.25327
1.23239
1.25515
1.24468
1.26406
1.21318
1.27088
1.28459
1.43089
1.25585
1.28098
1.92309
1.60438
1.68167
1.45382
2.26565
2.7127
2.82237
461.851
188.032
2.96815
2.37532
9.00781
4.26447
41.7936
34.5306
22.9655
142.868
231.799
81.104
1261.37
781.573
1932.49
1713.92
2236.79
2287.14
2503.31
2455.32
3.2975
20.3785
254.288
394.886
41.0976
148.94
413.961
329.854
325.708
438.783
344.938
274.502
601.999
411.696
540.983
576.304
579.234
583.89
581.524
505.82
496.512
622.384
596.169
604.309
626.392
752.632
708.491
724.046
730.312
747.987
716.1
856.365
645.273
696.876
875.785
836.835
790.243
804.118
931.382
930.921
1010.38
1012.46
1199.25
1053.82
1070.24
1307.35
1251.52
1303.7
1258.78
0.781568
0.836876
0.893224
1.5119
1.46198
1.44294
1.40826
1.39154
1.35813
1.31211
1.25438
1.28782
1.38025
1.40434
1.19923
1.18629
1.17896
1.18039
1.21522
1.19539
1.1911
1.20151
1.21511
1.20599
1.22682
1.2224
1.23844
1.22657
1.26199
1.3122
1.40577
1.45725
1.34498
1.8348
2.31774
1.59828
1.90972
2.5931
3.70649
2.8803
3.90317
7.52865
2.04198
914.461
535.278
37.8896
14.9866
152.399
88.0732
401.858
712.913
301.231
1814.36
1582.09
2285.59
2399.28
2717.24
2723.36
2.41841
12.81
215.305
451.6
24.6656
97.9054
464.63
483.322
258.635
289.786
473.268
335.316
544.272
478.409
267.327
344.063
668.462
503.143
566.545
538.414
624.413
679.783
678.102
631.891
661.384
720.612
705.044
707.966
857.149
807.013
771.052
755.895
704.878
847.175
869.532
953.192
892.911
901.678
974.57
988.351
956.691
969.374
999.669
1016.53
1189.25
1142.08
1053.81
1180.48
1155.76
0.769987
0.791096
0.822621
0.889967
0.933528
1.44859
1.36857
1.35775
1.33361
1.33293
1.23058
1.2768
1.25673
1.30488
1.33148
1.31987
1.30181
1.32665
1.28939
1.28725
1.24438
1.24589
1.23079
1.19016
1.18801
1.18898
1.19277
1.2231
1.18838
1.19738
1.20447
1.21109
1.20839
1.22414
1.2285
1.26177
1.35559
1.29526
1.42538
1.58173
1.53457
1.68786
2.2052
2.71977
1.90753
2.30357
3.28769
4.93304
15.2652
10.9039
9.39428
21.5805
76.031
66.1702
1711.34
1161.61
336.245
312.261
801.904
1249.57
766.172
2263.64
2444.14
2798.23
2966.58
1.95762
7.67428
164.057
428.411
14.3308
57.5944
439.865
556.648
313.486
255.487
544.114
424.471
359.282
293.965
242.563
246.838
564.147
543.054
306.539
428.577
351.355
433.533
542.434
627.416
607.843
596.747
558.829
567.584
511.55
708.497
705.155
591.554
515.944
543.298
530.403
719.311
766.899
974.382
1007.64
1004.37
985.609
991.041
1011.63
1029.77
987.152
994.467
1.31917
0.77893
0.786075
0.806121
0.833535
0.867991
0.93367
0.978556
0.80166
0.799758
0.834605
0.826212
0.874339
0.857776
1.20022
1.21133
1.15695
1.16987
1.10949
1.12637
1.05916
1.08149
0.918312
0.896847
0.96448
0.93858
1.01109
1.0337
0.984239
1.29945
1.28969
1.27294
1.28009
1.24858
1.23759
1.26398
1.25785
1.25578
1.24176
1.26506
1.21756
1.22071
1.17622
1.18212
1.22968
1.19294
1.20982
1.19143
1.20775
1.21014
1.20632
1.213
1.21316
1.22397
1.234
1.2327
1.23219
1.22904
1.32646
1.25584
1.48496
1.37474
1.57301
1.83103
1.72887
2.04307
2.68207
3.92178
2.41973
3.06144
4.50669
13.6369
162.872
101.356
194.307
43.1613
178.317
459.302
571.052
2289.52
1852.59
1141.12
1866.85
1215.83
2889.58
2946.21
1.54633
4.91043
413.427
102.402
196.365
8.70411
34.8379
563.46
596.227
367.42
280.776
588.912
457.229
638.711
238.566
235.139
227.397
422.475
366.646
215.42
255.268
283.487
236.714
375.74
438.202
399.18
355.207
375.497
329.622
388.147
315.729
400.786
254.064
337.348
237.634
321.512
552.504
990.656
950.144
683.24
938.723
895.189
1.23916
0.973914
1.01889
0.812853
0.821283
0.846404
0.879359
0.918063
0.83103
0.833033
0.857464
0.856439
0.891386
0.885142
1.13584
1.14851
1.09661
1.11239
1.05468
1.07222
1.01244
1.03312
0.931109
0.918563
0.970723
0.992898
0.954555
1.24802
1.23878
1.22897
1.24424
1.23658
1.20137
1.20682
1.19661
1.21977
1.16453
1.17085
1.12433
1.13402
1.23018
1.23159
1.23101
1.24245
1.23512
1.24222
1.24452
1.23695
1.24813
1.26803
1.25049
1.2527
1.24846
1.37931
1.3011
1.3106
1.63933
1.4551
1.74407
2.20404
2.08134
2.59245
3.55018
7.71559
3.16806
4.97238
9.86733
74.3858
584.801
738.667
516.938
757.9
200.94
637.674
1122.8
1436.97
1943.93
3091.9
2335.22
1.38988
2.19935
4.32822
234.492
483.924
58.2126
143.028
14.7498
543.159
662.115
344.324
251.178
633.897
390.945
665.141
623.139
511.561
507.98
197.479
214.832
283.731
247.46
179.389
191.875
201.326
179.886
237.749
264.184
251.513
223.484
214.566
199.243
170.691
160.204
142.671
124.388
166.114
118.672
708.798
194.854
506.948
2929.51
1.0224
1.09963
0.926562
0.985611
0.848431
0.863843
0.894242
0.863422
0.86643
0.883997
0.8856
0.910714
0.909968
1.08792
1.10111
1.05082
1.06884
1.01253
1.03249
0.976995
0.999757
0.94532
0.967336
0.937064
1.20963
1.20818
1.20324
1.19712
1.15771
1.17084
1.16293
1.19195
1.1228
1.13472
1.08864
1.10001
1.23246
1.21767
1.25801
1.24783
1.32388
1.29695
1.34211
1.32864
1.28002
1.29525
1.34526
1.30503
1.27875
1.37902
1.29785
1.2982
1.52501
1.51867
1.83779
1.82191
2.61617
2.47349
3.95636
2.97811
5.64711
18.1709
4.41672
8.10588
52.4152
254.209
504.045
1306.62
1435.53
1173.94
1236.03
1628.88
2026.83
2283.72
29.3554
1.18255
1.22749
2.01419
2.71884
8.90964
376.934
91.6367
184.808
625.237
436.785
230.084
299.211
634.215
654.232
319.832
410.413
664.037
607.512
527.005
419.931
171.515
194.325
187.62
178.241
153.365
157.354
152.091
152.955
156.307
166.769
118.746
122.037
95.7554
96.1711
85.7828
82.9721
112.641
84.2655
1.001
1.06114
0.890887
0.912797
0.95619
0.897197
0.913114
0.913416
0.917139
0.935311
0.934253
1.05517
1.07047
1.01955
1.04267
0.990109
1.01113
0.961232
0.98313
0.957368
1.20663
1.18318
1.18141
1.18427
1.12978
1.14634
1.17927
1.14623
1.09631
1.11461
1.06783
1.08324
1.26473
1.24071
1.24021
1.30511
1.27964
1.41898
1.40566
1.39417
1.42636
1.54864
1.50197
1.50353
1.46312
1.43877
1.37234
1.33804
1.51322
1.45101
1.56255
2.03561
1.79742
3.35958
3.48213
2.43855
3.27739
5.40731
5.82054
23.8521
73.2186
19.5367
201.996
414.415
740.998
1401.23
1942.89
2010.76
2375.48
8028.83
136.889
1.10018
17.5587
45.8464
1.21668
1.31224
1.3797
2.25376
3.12096
7.99883
372.899
258.44
642.218
584.52
200.728
254.09
699.545
679.928
276.6
367.951
641.851
559.946
427.463
146.724
170.519
125.897
129.961
129.493
119.651
103.22
106.03
86.0005
89.7209
80.5141
81.7632
79.4798
82.2296
1.05243
0.934904
0.980096
1.01466
1.02565
0.932293
0.953051
0.943847
0.951836
0.957912
0.959454
1.03392
1.05669
1.00776
1.0302
0.981637
1.00507
0.980579
1.06155
1.17895
1.17789
1.1851
1.16166
1.13988
1.11595
1.18849
1.11464
1.09515
1.09132
1.25956
1.22225
1.288
1.32962
1.33365
1.4151
1.40145
1.55816
1.59812
1.65571
1.63102
1.85609
1.84277
1.78136
1.59452
1.55481
1.75532
1.71569
1.89087
1.87988
2.66051
2.54466
6.37639
6.56548
6.08969
4.6027
35.6345
26.2828
262.567
163.614
591.994
757.439
1115.23
1966.9
272.131
80.9126
134.674
1.25509
1.17161
12.4542
38.612
1.34687
1.62005
2.19254
2.65927
7.94732
551.235
429.623
715.201
694.78
176.598
232.057
728.94
653.244
532.387
417.852
274.58
125.221
145.49
97.8968
107.158
104.576
86.4607
90.1908
84.3605
84.9512
85.9954
87.6819
1.1164
1.18165
0.98349
0.998265
1.07172
1.1405
0.976365
0.990932
0.977262
0.990021
0.989278
0.995766
1.05683
1.03962
1.01759
1.03431
1.01198
1.25368
1.09514
1.07889
1.07859
1.16914
1.17906
1.14508
1.23414
1.18699
1.15807
1.12808
1.34363
1.33075
1.4255
1.39652
1.51645
1.50184
1.72259
1.67046
1.92194
2.02212
2.53114
2.34154
2.21291
1.99799
1.91874
2.09428
2.08786
2.41873
2.4909
2.46135
5.29704
4.19341
38.7674
13.0039
17.712
10.2813
284.366
155.531
747.692
518.203
1059.09
941.364
417.521
191.969
282.808
63.0512
124.053
1.43651
1.27816
11.9133
32.5285
2.60833
1.52982
5.39095
676.87
581.302
757.625
774.663
237.908
173.908
144.462
736.573
544.114
440.04
309.723
254.379
102.056
116.775
87.1437
91.0229
85.7297
85.5705
90.9546
89.49
1.21499
1.32772
1.02737
1.08633
1.14444
1.24995
1.02508
1.05377
1.03573
1.01051
1.04916
1.04785
1.08205
1.05597
1.07435
1.33037
1.28736
1.14468
1.12967
1.14667
1.13445
1.19886
1.26817
1.18074
1.20518
1.17372
1.51839
1.51217
1.44889
1.67314
1.62258
1.8695
1.99556
1.94632
2.34776
2.28463
4.17191
3.21893
3.3213
3.00317
2.81972
2.70711
3.82328
3.85811
3.74685
3.38701
6.43836
23.4583
16.2235
200.589
90.1733
94.629
585.575
408.871
963.348
783.264
342.165
538.433
645.344
163.789
314.251
48.811
114.643
1.4646
1.83382
7.57622
31.1498
2.02763
4.61258
794.961
768.162
795.355
775.624
851.122
149.875
174.923
115.952
660.543
503.218
333.844
280.179
171.004
87.3732
97.3316
85.3364
83.4508
91.4506
88.5989
1.3701
1.56398
1.10269
1.16688
1.2557
1.42424
1.11146
1.08698
1.14748
1.14373
1.14105
1.13664
1.12915
1.42657
1.32352
1.19922
1.21046
1.18051
1.2373
1.31079
1.25827
1.31326
1.25258
1.85298
1.76081
1.71878
1.57852
2.28856
2.59636
2.39967
2.61097
2.96796
2.79468
3.89162
3.33111
4.98222
5.47111
5.37661
3.63322
8.20039
8.52912
6.59942
75.3247
38.0079
201.736
183.37
508.023
399.531
799.08
707.525
365.539
547.737
677.068
165.426
323.57
45.0386
113.837
2.50962
1.84126
7.93813
5.33342
24.0477
672.113
890.128
880.651
890.08
814.832
864.282
702.789
898.861