/*--------------------------------*- C++ -*----------------------------------*\
  =========                 |
  \\      /  F ield         | OpenFOAM: The Open Source CFD Toolbox
   \\    /   O peration     | Website:  https://openfoam.org
    \\  /    A nd           | Version:  8
     \\/     M anipulation  |
\*---------------------------------------------------------------------------*/
FoamFile
{
    version     2.0;
    format      ascii;
    class       volScalarField;
    location    "11000";
    object      p;
}
// * * * * * * * * * * * * * * * * * * * * * * * * * * * * * * * * * * * * * //

dimensions      [0 2 -2 0 0 0 0];

internalField   nonuniform List<scalar> 
4109
(
-0.00552594
-0.0177863
-0.00879518
-0.0287629
-0.0299037
-0.0185361
-0.0287153
-0.0146657
-0.0392336
-0.0397042
-0.0390249
-0.0429685
-0.0091297
-0.0228971
-0.0317844
-0.0463761
-0.0507397
-0.0467488
-0.0451179
-0.0419988
-0.00271906
-0.0324537
-0.0327681
-0.0538018
-0.054646
-0.0622811
-0.00304257
-0.0082652
-0.00559616
-0.0520853
-0.0456166
-0.0470709
-0.0299949
-0.0869047
-0.0618503
-0.0572778
-0.0622824
-0.0763004
-0.0165436
-0.00504666
-0.000188454
-0.0132555
0.00036753
-0.0561623
-0.0518679
0.0902542
-0.0558669
-0.0471438
-0.0550958
-0.0764585
-0.0683465
-0.0659215
-0.0717201
-0.0884949
-0.0239826
-0.0109739
-0.00520108
0.0150037
-0.0095956
-0.0210374
-0.0678276
0.0650768
-0.061709
-0.0562646
-0.0523768
-0.0337393
-0.0585414
-0.0519976
-0.0577858
-0.0537292
-0.105423
-0.0804881
-0.125732
-0.125616
-0.127196
-0.0299791
-0.0327781
-0.0231678
-0.0123395
-0.0206198
-0.0118104
-0.0150881
-0.0160247
-0.0261982
0.0156269
-0.206777
0.12373
-0.236297
-0.00807569
-0.0812803
-0.07131
-0.0615865
-0.0557853
-0.0534141
-0.0541354
0.0316168
-0.0530989
-0.062073
-0.125486
-0.108889
-0.0979396
-0.139541
-0.137427
-0.145658
-0.15116
-0.0344601
-0.0374517
-0.0399366
-0.0230774
-0.00478538
0.0639275
-0.0153895
-0.0156413
-0.0236849
-0.0302475
-0.578996
0.112112
0.0118598
-0.00553086
-0.309749
-0.120373
0.261527
-0.0883575
-0.0778345
-0.0696269
-0.0563294
-0.0551214
-0.0465164
-0.0744633
-0.0633464
-0.0570153
-0.119957
-0.111706
-0.148668
-0.133546
-0.178199
-0.166586
-0.0416309
-0.0476004
-0.0504562
-0.0340478
0.00851472
0.0595577
-0.0129803
-0.0243352
-0.0271905
-0.0345703
0.0879531
0.0819957
-0.215383
-0.100531
-0.137554
0.0954192
-0.0863065
-0.0842306
-0.0757769
-0.0601902
-0.048692
-0.0438108
-0.0396952
-0.00611382
-0.0287032
-0.109044
-0.100064
-0.148143
-0.123466
-0.166362
-0.181529
-0.214817
-0.0520214
-0.0581435
-0.0627891
-0.0509464
0.0079481
0.0295374
-0.0199099
-0.0237785
-0.0259439
-0.0428228
0.0191602
-0.158092
0.0161558
-0.0697573
-0.0838721
-0.021876
-0.0804115
-0.0853527
-0.0724194
-0.0459584
-0.0461288
-0.0282038
-0.013923
-0.0107797
-0.0931253
-0.100533
-0.138653
-0.112038
-0.157508
-0.185378
-0.216407
-0.256876
-0.0663489
-0.0725275
-0.0757064
-0.0670686
-0.0157632
0.00394801
-0.0101231
-0.0119753
-0.0242128
-0.0568327
-0.0928767
-0.103698
-0.0847559
-0.0154994
-0.0944072
-0.0463062
-0.0768975
-0.0782891
-0.0945699
-0.04881
0.0960065
0.0667248
-0.080847
-0.0860263
-0.127761
-0.0967996
-0.147391
-0.178893
-0.215681
-0.256437
-0.302708
-0.0824998
-0.0866965
-0.0873141
-0.0801274
-0.00856695
0.0293795
0.00988642
0.0131899
-0.0990093
-0.0381943
-0.0736367
-0.0639126
-0.0631256
0.0544986
-0.138895
-0.208995
-0.0526311
-0.0851261
-0.0604856
-0.090169
0.0603691
0.0674199
-0.0633926
-0.0656065
-0.111683
-0.0767714
-0.131083
-0.169911
-0.206599
-0.249169
-0.298457
-0.349654
-0.104267
-0.0951143
-0.0918646
-0.116356
0.0209373
0.101266
-0.0173416
-0.113258
-0.0906888
-0.0616799
-0.175265
-0.129536
-0.231291
0.0633956
-0.197167
0.0100497
1.07773
-0.0566389
-0.0103668
-0.337666
-0.0965733
-0.0537057
-0.0291843
-0.0863398
-0.0444121
-0.10893
-0.153072
-0.196155
-0.237443
-0.285914
-0.333466
-0.370437
-0.383123
-0.113598
-0.116871
-0.108245
-0.134142
-0.130551
0.0197598
0.100828
-0.055435
-0.107506
-0.0842407
-0.0651185
-0.222392
-0.0284607
-0.0484743
0.402591
0.0500388
1.08361
1.12335
1.13587
1.02828
1.02852
0.970109
-0.661748
-0.249244
-0.148229
-0.112601
0.0145945
-0.0465219
-0.0388425
-0.0806534
-0.132081
-0.178132
-0.371196
-0.226179
-0.272024
-0.322461
-0.394614
-0.400874
-0.411664
-0.386633
-0.136954
-0.136482
-0.153439
-0.148474
-0.125115
-0.0256607
-0.0109644
-0.0909931
-0.103955
0.335321
0.118049
1.01251
-0.105104
1.19947
1.1632
1.16928
1.07739
1.1963
1.21827
-0.314918
-0.362483
-0.329545
0.946346
0.921675
0.992722
0.909322
1.01622
0.10933
0.164559
0.160889
0.0233596
-0.0274756
-0.399255
-0.104778
-0.109045
-0.155203
-0.204867
-0.360148
-0.260987
-0.310945
-0.437821
-0.41915
-0.424831
-0.437734
-0.427434
-0.438071
-0.166543
-0.159472
-0.174344
-0.165299
-0.142071
-0.122751
-0.0967281
-0.153516
-0.104157
0.778455
0.616084
1.24442
1.23169
1.15582
1.27666
1.30526
-0.247512
-0.192628
-0.195103
-0.484606
-0.319615
0.826842
0.811848
0.842251
0.941759
1.08248
-0.0894049
0.445948
0.435814
0.0322673
-0.0789241
-0.394415
-0.421009
-0.114623
-0.130992
-0.173802
-0.234391
-0.354403
-0.302849
-0.473129
-0.451172
-0.48424
-0.474734
-0.518223
-0.597522
-0.197966
-0.18577
-0.120215
-0.203179
-0.178693
-0.158327
-0.13852
-0.223508
-0.108752
-0.0778345
-0.104864
-0.263166
1.20462
1.32555
1.32263
1.23107
1.3707
1.40676
-0.797903
-0.0186738
0.187743
-0.0815315
-0.0975625
0.629359
0.41005
-0.313775
-0.168866
0.716087
0.842478
0.987376
1.16473
-0.155549
0.0239478
0.132114
-0.0274017
-0.101708
-0.401089
-0.445931
-0.128896
-0.144123
-0.191763
-0.269503
-0.354532
-0.528433
-0.491503
-0.552995
-0.5536
-0.655215
-0.867505
-0.232016
-0.244847
-0.216085
-0.123121
-0.134703
-0.174526
-0.19404
-0.150594
-0.245352
-0.215858
-0.521988
-0.250631
-0.239667
-0.047606
1.24974
1.23322
1.16507
1.42861
1.42527
1.32433
1.48542
1.53887
-0.632284
-1.19529
0.0451255
0.200081
0.0719159
0.402517
0.58403
-0.0993171
0.0131028
0.711466
0.870315
1.07775
1.27786
-0.257195
-0.22566
-0.229388
-0.0576292
-0.04702
-0.101433
-0.414422
-0.477185
-0.136602
-0.160734
-0.225742
-0.323358
-0.539966
-0.597712
-0.643857
-0.667045
-0.869562
-1.1716
-1.45098
-0.269964
-0.282543
-0.145869
-0.140795
-0.165303
-0.185391
-0.209585
-0.281924
-0.242629
-0.202826
-0.0788282
0.366294
1.3252
1.30188
1.23937
1.06964
1.16145
1.54944
1.55033
1.43795
1.59932
1.63052
-0.394085
-0.99802
-1.71261
0.550422
0.253352
0.353007
0.129568
0.184633
0.730933
0.967136
1.2242
1.41105
0.302491
-0.185732
-0.252241
-0.261361
-0.101227
-0.0213745
-0.0521167
-0.394138
-0.477981
-0.198585
-0.135277
-0.285784
-0.568072
-0.663941
-0.756209
-0.829914
-1.09987
-1.38825
-1.76778
-2.05774
-0.315448
-0.320902
-0.120911
-0.147971
-0.166129
-0.187299
-0.223685
-0.31808
-0.28344
-0.244965
-0.0487618
0.0238371
1.43141
0.967537
1.3412
1.27437
1.14692
1.67599
1.6803
1.56764
1.722
1.73572
1.70104
-0.110612
-2.17654
-0.695841
-1.36908
0.336929
0.547736
0.369423
0.824668
1.15457
1.3846
1.56177
0.0280827
-0.113827
-0.173973
-0.141645
-0.0751114
0.0938084
0.0347105
-0.481435
-0.371594
-0.264369
-0.182551
-0.601691
-0.736819
-1.0027
-0.872946
-1.30753
-1.96689
-1.62629
-2.2619
-2.49953
-0.359697
-0.356641
-0.35584
-0.134786
-0.155885
-0.195397
-0.246951
-0.321126
-0.282388
-0.0872932
-0.0734148
1.55465
1.43129
0.822708
0.955418
1.3349
1.21893
1.04386
1.7943
1.78935
1.70842
1.84536
1.8397
1.81613
0.159006
-2.72855
-0.336384
-1.78264
-0.95063
0.495035
0.658261
0.394107
1.02755
1.33414
1.55744
1.72954
0.0198908
-0.0203974
-0.0983342
-0.10204
0.0295545
0.178554
-0.00202434
-0.511235
-0.358702
-0.268682
-0.680325
-0.836059
-1.16725
-1.00316
-1.55543
-1.96328
-2.32562
-2.73462
-3.09651
-0.401045
-0.393654
-0.396169
-0.36488
-0.142146
-0.163256
-0.218445
-0.281099
-0.323234
-0.0768823
-0.0422297
1.67721
1.58241
1.51661
1.4141
0.634302
0.814926
0.926002
1.29197
1.15667
1.00519
0.421821
1.88403
1.87177
1.79039
1.85934
1.95434
1.91828
1.95414
0.0570155
-2.27477
-0.508285
-1.31443
0.656784
0.862516
0.429115
1.91238
1.22006
1.5308
1.75935
0.0454223
-0.0419738
-0.0820619
-0.0521843
-0.163666
0.0327941
0.0557753
-0.533552
-0.345559
-0.89605
-0.758182
-1.31821
-1.66339
-1.15502
-2.21124
-2.84219
-3.36254
-0.41638
-0.449946
-0.444822
-0.415596
-0.373241
-0.156915
-0.182168
-0.254402
-0.324445
-0.0771977
-0.029779
-0.396722
-0.339722
1.69466
1.61855
1.50234
1.37911
0.643021
0.810983
0.944972
1.23252
1.08843
0.456002
0.207766
0.00814623
-0.160118
-0.274549
1.91014
1.94359
1.8782
1.79989
2.09515
2.00613
2.03619
1.99952
-0.0357415
-1.73916
-0.792577
1.04789
0.78365
0.641921
0.382256
2.20264
1.98314
1.44613
1.77985
0.0309461
-0.110781
0.0174372
0.498074
-0.351246
-0.0492165
-0.724742
-0.493516
-1.56044
-1.15074
-1.92891
-2.78839
-3.50363
-0.464383
-0.490684
-0.474209
-0.433843
-0.378996
-0.177185
-0.220599
-0.303626
-0.0575374
-0.0714136
-0.334154
-0.440561
-0.371232
1.71355
1.6056
1.4774
1.32185
0.661304
0.834
1.00228
1.15635
0.496706
0.25441
0.333718
-0.331026
0.0549897
-0.244588
-0.114114
1.8987
1.96437
1.81757
2.03564
2.24994
2.12653
2.08063
2.38121
-0.247317
-1.13998
1.28086
1.15693
1.02088
0.999472
0.319788
2.07102
2.34313
1.78058
0.219015
0.148014
0.901297
0.56604
-0.25122
-0.391197
-0.877054
-0.565008
-1.67077
-2.56251
-3.49798
-0.519258
-0.532729
-0.50556
-0.451609
-0.368965
-0.228966
-0.280442
-0.0937288
-0.106912
-0.411173
-0.520323
1.83083
1.71826
1.58595
1.42802
1.23786
0.691342
0.88414
1.05968
0.534775
0.378494
0.189025
-0.416282
-0.367456
0.0383012
-0.278245
-0.137597
1.92367
2.00361
1.94431
2.12134
2.55366
2.39878
2.23058
2.53043
1.94631
-0.483677
1.71645
1.59034
1.43844
0.940105
0.234295
2.36175
2.20595
2.52563
0.198003
0.635969
2.16066
0.458178
0.476486
-1.23391
-0.768633
-2.15801
-3.33668
-0.587174
-0.581793
-0.5448
-0.462391
-0.298128
-0.362557
-0.155634
-0.149191
-0.522069
-0.627743
1.83594
1.71174
1.54982
1.33438
1.13064
0.738722
0.935033
0.573608
0.381806
0.187572
-0.503718
-0.441374
-8.70382e-05
-0.334399
-0.183275
2.0832
2.02815
2.28246
2.93829
2.7158
2.73354
2.55295
2.00237
1.88053
1.55898
0.983399
2.28342
2.72039
3.03263
0.120918
0.849298
-0.129699
-0.198264
-1.67427
-0.963197
-2.9872
-0.655791
-0.645879
-0.590472
-0.295602
-0.454169
-0.346474
-0.648275
-0.720485
1.69371
1.84698
1.45793
1.20358
0.998093
0.783107
0.602926
0.394831
0.170891
-0.626458
-0.55489
-0.055845
-0.432398
-0.262421
2.13718
2.23337
2.52588
3.2482
2.9817
2.83286
3.49453
2.0441
2.12892
1.73238
2.66852
3.11667
3.5415
-0.208316
0.0811269
0.121243
-0.195417
-2.39566
-1.35352
-0.746224
-0.717271
-0.487105
-0.603363
-0.621153
-0.76065
-0.842913
1.62982
1.82848
1.32122
1.07336
0.836903
0.638122
0.401554
0.140884
-0.753847
-0.685168
-0.120449
-0.550716
-0.357433
2.25261
2.42252
2.80866
3.5104
3.1726
3.92301
2.02897
2.44876
3.12976
3.71695
4.23606
-32.1656
-0.239865
0.28434
0.336204
-0.404454
-31.4256
-0.852611
-0.764858
-0.888957
-1.00601
-0.709779
-0.912203
-0.993567
1.7509
1.51177
1.19622
0.90989
0.689024
0.412022
0.105709
-0.924289
-0.853669
-0.198594
-0.699751
-0.475104
2.65358
2.34198
3.28946
3.97027
4.5981
2.52017
2.07509
-34.2454
-32.166
-0.148297
0.149242
0.193245
-29.3948
-31.3002
-31.6627
-0.989247
-1.04012
-1.17268
-1.19777
-0.825269
-1.11776
-1.19059
1.71603
1.41323
1.03268
0.778865
0.429557
0.0512745
-1.17506
-1.09412
-0.31168
-0.638711
-0.906091
3.09141
3.90844
4.73259
2.93781
2.51671
2.07859
-35.2268
-34.3147
-32.1668
-0.504301
-28.8039
-31.0406
-33.8594
-30.8741
-1.3238
-1.4953
-1.54164
-1.3445
-1.4301
-1.46569
1.64085
1.24277
0.940874
0.469665
-0.00792069
-1.56721
-1.43734
-0.449275
-0.843324
-1.1768
3.75759
4.71412
2.8509
3.50923
2.52527
2.06852
-36.0625
-35.3736
-34.3486
-32.1509
-34.9219
-27.3779
-28.5624
-30.7879
-33.9954
-30.6624
-1.76601
-1.98102
-2.32079
-1.92799
-1.76939
-1.93931
1.51313
1.01686
0.453776
-0.103129
-2.15658
-1.86657
-0.628503
-1.10152
-1.5163
4.54677
3.2132
4.19956
2.76708
2.20176
-36.0723
-35.4984
-34.3651
-32.1305
-33.7263
-35.1621
-27.5215
-27.3795
-28.434
-30.5606
-33.9093
-30.6479
-2.3052
-2.89605
-2.4384
-2.56383
-2.70002
1.60689
1.00461
0.376797
-0.258753
-2.53303
-2.25145
-0.862807
-1.40897
-1.88479
3.72356
3.13528
2.4547
-38.6445
-35.947
-35.585
-34.3751
-32.1075
-33.795
-35.3249
-25.4101
-27.5599
-27.3487
-28.3419
-30.3535
-33.7841
-30.5679
-3.21671
-3.3649
-3.41164
-3.36282
1.74522
1.00908
0.259049
-0.473028
-3.13249
-2.76611
-1.15623
-1.77326
-2.31536
-41.4673
-38.7526
-35.8302
-35.6466
-34.3866
-32.0848
-33.9306
-35.4842
-24.9792
-25.4291
-27.5897
-27.3007
-28.2698
-30.1683
-33.6402
-30.3998
-46.1337
-41.6611
-38.8259
-35.7429
-35.6919
-34.4005
-32.0618
-34.0447
-35.6562
-21.0044
-25.1596
-25.4443
-27.5931
-27.2739
-28.1981
-30.0493
-33.492
-30.1982
-48.7748
-45.9738
-41.7712
-38.887
-35.6843
-35.7273
-34.4168
-34.1306
-35.8452
-25.3354
-20.8068
-25.2922
-25.4436
-27.5776
-27.2632
-28.1214
-33.3725
-93.956
-48.3162
-45.9451
-41.8496
-38.917
-35.646
-35.7501
-34.1807
-36.0194
-20.0852
-26.1165
-20.8156
-25.3566
-25.4421
-27.5528
-27.2691
-33.3191
-30.0632
-103.252
-47.1822
-46.0017
-41.9089
-38.923
-35.6264
-34.1815
-21.6782
-20.2047
-26.9412
-20.8448
-25.3812
-25.4426
-27.5277
-27.2761
-44.1829
-30.336
-112.21
-45.9418
-46.0825
-41.9402
-38.9125
-34.1508
-20.939
-21.7449
-20.274
-27.7274
-20.8796
-25.3832
-25.4493
-27.5182
27.0544
-51.6492
-29.8755
-120.306
-44.6931
-46.1548
-41.9477
-38.8885
-20.8913
-20.8965
-21.8232
-20.3453
-28.4562
-20.9242
-25.3768
-25.4573
34.6278
30.0196
-59.9746
-29.2069
-127.445
-43.432
-46.1592
-41.9316
-20.4723
-20.8357
-20.8562
-21.8783
-20.4311
-29.1624
-20.9531
-25.3859
47.195
35.6478
32.9739
-67.6792
-28.4334
-134.189
-42.2753
-46.093
-20.4789
-20.4035
-20.781
-20.8222
-21.9166
-20.5278
-29.8456
-20.9427
49.9529
48.0486
36.7057
35.1233
-74.6802
-27.5357
-141.255
-41.494
-20.9058
-20.4076
-20.3303
-20.728
-20.7965
-21.9447
-20.6224
-30.2713
49.9396
50.4984
48.9443
37.5802
36.913
-81.5546
-26.7448
-146.581
-20.9539
-20.8478
-20.3328
-20.2624
-20.678
-20.7773
-21.9665
-20.6911
47.5946
50.5375
51.1043
49.6659
38.4382
38.6047
-89.21
-26.62
-21.6922
-20.9085
-20.7918
-20.2638
-20.2024
-20.6329
-20.7617
-21.9811
34.8814
48.3309
51.1341
51.6538
50.2467
39.3842
40.3348
-95.6868
-20.0387
-21.7632
-20.8672
-20.7371
-20.2029
-20.1506
-20.5978
-20.7502
27.441
36.028
49.1996
51.6777
52.1342
50.7299
40.3933
41.5805
-25.3323
-20.1234
-21.8423
-20.8326
-20.6851
-20.1503
-20.1122
-20.5806
-43.9313
30.5141
37.2371
49.9139
52.1569
52.5583
51.1061
41.0442
-21.0006
-26.1679
-20.1863
-21.8989
-20.8068
-20.638
-20.1111
-20.0944
-30.2267
-51.648
33.6129
38.2298
50.4934
52.5795
52.912
51.3246
-24.8932
-20.7936
-27.0045
-20.2538
-21.9391
-20.7876
-20.601
-20.093
-94.1785
-30.7823
-60.1474
35.9168
39.1542
50.9681
52.9288
53.1126
-25.3724
-25.0736
-20.795
-27.7901
-20.3343
-21.9699
-20.772
-20.583
-49.1842
-103.869
-30.4401
-67.9858
37.8852
40.11
51.3434
53.1259
-27.5304
-25.3968
-25.2012
-20.8219
-28.5167
-20.4239
-21.9941
-20.7605
-45.9004
-48.6724
-112.912
-29.8236
-75.1009
39.787
41.039
51.5581
-27.27
-27.5553
-25.4122
-25.2599
-20.857
-29.2195
-20.5135
-22.0099
-41.7576
-45.7621
-47.4888
-121.051
-29.0773
-82.1062
41.6202
41.5969
-30.6079
-34.3263
-27.2771
-27.5845
-25.4129
-25.281
-20.9009
-29.8893
-20.5758
-38.4245
-41.9277
-45.7573
-46.2401
-128.246
-28.2005
-89.7775
43.0573
-28.2525
-30.5405
-34.3564
-27.2455
-27.5898
-25.4128
-25.2774
-20.928
-30.3024
-33.9794
-38.5473
-42.0241
-45.8287
-44.9822
-135.027
-27.4068
-96.242
-34.7219
-31.0477
-27.9339
-30.6111
-34.2864
-27.1969
-27.5757
-25.415
-25.2697
-20.9172
-33.8777
-38.6288
-42.0991
-45.9214
-43.7191
-142.136
-27.3257
-35.0808
-35.8976
-31.8387
-30.8482
-27.8156
-30.5664
-34.2041
-27.1701
-27.5522
-25.4218
-25.2767
-35.3342
-34.1597
-33.9965
-38.6939
-42.1555
-45.9999
-42.5465
-147.488
-35.2595
-35.9456
-31.7925
-30.5763
-27.7149
-30.4347
-34.095
-27.1634
-27.5288
-25.4307
-35.4189
-34.2354
-34.1236
-38.7272
-42.1903
-46.0066
-41.8024
-35.4067
-35.8387
-31.7583
-30.3355
-27.6401
-30.2465
-33.9771
-27.1675
-27.5191
-35.5365
-34.2433
-34.2204
-38.7386
-42.2015
-45.9395
-35.5639
-35.7226
-31.73
-30.1223
-27.5913
-30.0383
-33.8857
-27.1733
-35.6267
-34.2507
-34.2772
-38.7294
-42.1874
-35.7376
-35.6338
-31.7024
-29.9247
-27.5406
-33.8508
-35.6911
-34.2576
-34.2845
-38.7068
-35.8997
-35.5757
-31.6733
-29.7544
-27.4748
-35.7382
-34.2686
-34.2555
-35.539
-31.6397
-29.6436
-35.7752
-34.2841
-35.5205
-31.6165
-35.8
-34.3008
-3.24486
-3.62951
-3.68144
-4.19494
-4.17261
-4.74157
-3.17427
-3.64066
-2.71787
-3.96064
-4.02749
-4.5804
-4.66944
-5.33275
-5.33415
-6.00113
-8.06076
-8.82775
-8.88911
-9.80395
-9.62552
-5.98112
-6.65792
-4.70997
-5.32857
-3.55876
-4.09087
-2.6052
-3.01624
-2.13397
-10.5553
-10.1889
-4.15178
-4.33851
-4.9344
-5.04163
-5.65371
-5.86947
-6.63316
-6.65893
-7.42373
-7.36501
-8.07564
-8.825
-9.60931
-9.59877
-10.4383
-10.6188
-11.6202
-11.5139
-6.60189
-7.31703
-7.28415
-8.0736
-8.00503
-8.79334
-9.28042
-5.21353
-5.8442
-3.91158
-4.47321
-2.83433
-3.26513
-1.94095
-2.27177
-1.46032
-8.66252
-9.06328
-12.4826
-13.4033
-10.1232
-10.9126
-11.8779
-4.23585
-4.46987
-5.09264
-5.33347
-6.03164
-6.14112
-6.8833
-7.18085
-8.00872
-8.09139
-8.88663
-9.65829
-10.499
-10.4548
-11.2935
-11.2477
-12.2147
-12.3811
-13.0828
-13.4069
-14.5053
-14.0141
-14.8876
-5.68547
-6.46942
-6.5765
-7.25409
-7.44676
-4.26679
-4.88734
-3.0103
-3.50486
-2.01445
-2.36065
-0.70262
-1.1843
-1.44839
-7.11612
-7.88715
-7.63499
-8.78447
-10.151
-14.463
-12.5222
-13.9128
-11.382
-12.5494
-4.14841
-4.49682
-5.16136
-5.45528
-6.17897
-6.47791
-7.20819
-7.41081
-8.22294
-8.49578
-9.17766
-9.66037
-11.2026
-10.8254
-12.2267
-12.241
-13.3081
-13.2331
-13.8693
-14.6554
-15.1186
-15.178
-16.0919
-15.805
-15.6456
-16.207
-16.3348
-17.5301
-4.90232
-5.7244
-5.32656
-6.04016
0.142407
-0.339737
-3.34896
-4.08119
-2.02712
-2.50682
-0.515433
-1.0849
-1.3552
1.03106
0.585563
-5.66299
-6.45294
-6.30608
-18.6669
-17.5987
-19.3007
-7.65774
-8.96596
-10.2596
-11.4376
-13.7215
-14.8545
-16.525
-15.8652
-12.6902
-13.7765
-3.91251
-4.3371
-5.05604
-5.4571
-6.21572
-6.55373
-7.31448
-7.63683
-8.73359
-8.40615
-9.61462
-9.81096
-10.712
-11.2712
-12.8854
-12.3652
-13.8299
-13.9465
-14.63
-15.2062
-15.0749
-20.6278
-21.0388
-19.7845
-16.1793
-15.9489
-16.9371
-16.8965
-17.2516
-18.0575
-17.6464
-19.777
-19.0335
-29.4197
-30.1401
-29.7996
-32.406
-31.2347
-30.7699
-30.9997
-30.683
-3.67453
-4.25858
-3.71484
-4.40046
0.511006
-0.0592334
-2.11493
-2.68932
-0.252767
-0.940047
-1.26556
1.92335
1.54966
1.57446
1.0643
-3.94203
-4.82686
-7.65982
-4.48516
-6.00736
-29.1138
-27.5409
-23.5006
-22.7417
-21.3629
-16.9777
-18.3707
-19.1385
-20.5899
-7.87551
-8.97808
-8.8297
-10.3625
-11.6939
-12.9981
-14.2993
-15.1221
-16.4946
-29.8203
-30.7841
-32.3368
-30.6974
-32.1333
-33.7947
-32.6433
-31.7988
-33.0617
-32.8839
-3.38883
-4.0069
-4.81749
-5.31562
-6.13909
-6.56693
-7.4808
-7.76994
-8.57012
-8.84802
-10.2388
-9.76972
-11.0921
-11.2494
-12.2629
-12.8358
-12.875
-14.2125
-13.8033
-14.9748
-15.682
-15.6298
-16.653
-16.7324
-16.3685
-21.9855
-22.9039
-25.0252
-24.1613
-21.6446
-20.7311
-17.6749
-17.7542
-18.3589
-18.6266
-20.5977
-19.4068
-19.0837
-25.6175
-27.6025
-27.1673
-27.7162
-27.0973
-29.1853
-29.4285
-30.0112
-32.085
-31.1104
-31.5495
-31.2682
-31.6561
-31.7668
-32.3084
-31.9992
-31.5436
-31.665
-2.04427
-2.55301
-1.83833
-2.5368
1.01053
0.318433
0.14833
-0.660228
-0.965436
2.76442
2.45241
2.58169
2.15482
2.24436
1.6956
-1.69864
-2.32366
-3.63994
-3.96911
-5.50078
-6.39494
-2.93369
-24.7464
-27.1921
-26.1105
-29.9356
-28.6091
-24.0315
-25.2181
-23.4035
-21.4397
-6.45728
-21.1825
-17.4007
-19.7704
-18.733
-7.5353
-8.51226
-10.0569
-10.5478
-12.1122
-12.5615
-14.345
-15.3372
-17.0896
-30.0296
-30.9024
-29.8922
-32.8809
-32.5997
-34.175
-32.356
-32.2128
-31.4107
-31.9474
-33.18
-32.8747
-2.7262
-3.37032
-2.13833
-2.19591
-4.32805
-5.03626
-6.00548
-6.48536
-7.49606
-8.02905
-9.11436
-9.23241
-10.5251
-11.3718
-10.2524
-12.0109
-12.6119
-13.5633
-14.0839
-14.8985
-13.5543
-14.0919
-15.585
-15.622
-15.6475
-16.4636
-16.3392
-16.4361
-16.421
-17.1676
-17.2775
-17.9822
-18.3463
-22.5789
-23.5661
-24.6443
-24.0194
-22.2554
-21.5667
-19.3113
-19.6157
-21.397
-20.4226
-20.3349
-25.4596
-25.1064
-25.5151
-28.2914
-27.1483
-29.0048
-28.7797
-30.4687
-27.5643
-30.0291
-30.2968
-31.7367
-31.3497
-31.0019
-32.2481
-30.3169
-31.4128
-0.440927
-0.246879
-0.650294
0.0311683
1.68604
0.928293
0.737383
0.293396
3.58191
3.3466
3.60344
3.24952
3.45467
2.96553
3.077
2.41841
4.30712
4.16527
4.89118
4.91395
5.47881
5.33299
1.09199
-0.507591
-1.29101
-1.33156
-5.17741
-3.43546
-1.56192
-0.784516
-28.6131
-28.1905
-26.5783
-22.4303
-25.6901
-24.2272
-4.88911
-6.63614
-8.40918
-22.7226
-18.5757
-21.1506
-19.9292
-10.1594
-11.2179
-12.7328
-13.2364
-14.8559
-15.4052
-17.4065
-28.9483
-32.6799
-33.3099
-32.1797
-31.2037
-34.2029
-35.2164
-34.3836
-35.1971
-33.0256
-33.0107
-33.5887
-34.3278
-33.9426
-1.3132
-1.8247
-4.31597
-4.3703
-3.12975
-3.72983
-5.68986
-6.24704
-8.04848
-8.09417
-9.19148
-9.66658
-11.2711
-11.2229
-12.1085
-12.6966
-13.6625
-13.9843
-14.9084
-14.7505
-15.5009
-16.1035
-17.0256
-16.6809
-17.3041
-16.9669
-17.68
-17.7155
-17.9428
-17.8735
-18.6605
-19.0003
-19.648
-20.0242
-24.1697
-22.9137
-23.796
-23.2246
-22.2192
-20.6234
-21.6088
-21.0421
-21.4547
-26.337
-24.9003
-27.4055
-25.8841
-27.8992
-28.1195
-27.4162
-31.031
-28.8651
-32.914
-31.034
5.53773
5.80784
0.941349
1.14662
2.44113
1.69152
1.82439
2.1298
2.42683
4.50791
4.211
4.51543
4.12579
4.39838
3.88254
4.13006
3.45964
5.35287
5.21071
6.02121
6.03211
6.63108
6.44232
2.96728
2.54142
2.47365
0.69113
-3.08383
-1.51731
0.157844
1.40397
-24.709
-26.7285
-27.9188
-3.15998
-5.18852
-7.05325
-9.10147
-10.9638
-22.575
-24.406
-18.85
-21.6787
-12.9854
-14.1974
-16.3783
-16.7948
-19.0326
-28.7975
-31.0216
-30.5832
-33.7244
-31.2365
-32.8269
-34.63
-34.636
-35.3567
-33.4143
-34.4603
-34.6987
-35.1056
-33.9276
-1.11881
-3.10753
-2.28308
-1.92908
-2.37112
-4.07348
-4.97241
-5.35407
-4.07601
-5.21453
-7.91454
-8.15686
-9.57369
-9.0477
-11.9363
-12.1809
-14.3231
-13.2935
-13.273
-14.0645
-14.2802
-15.3041
-15.6128
-16.3188
-16.736
-17.7507
-18.3077
-18.2103
-17.9852
-18.5704
-18.6867
-18.2532
-19.5212
-19.4331
-19.4542
-19.9153
-21.3392
-24.7085
-24.2774
-23.2648
-22.0779
-21.5031
-22.9177
-22.5904
-22.054
-25.5424
-25.4141
-27.3684
-26.5036
-27.6508
-27.7719
-27.8899
-27.5878
5.54506
5.92618
6.5879
6.92913
3.64333
3.02114
3.33453
4.38454
4.28741
5.67132
5.39404
5.84865
5.26868
5.54065
4.88575
4.99388
6.48902
6.59589
7.33913
7.29469
8.0157
7.68576
6.15917
4.92002
4.24304
3.41985
4.66165
7.657
-1.36524
0.293659
2.43266
4.10746
-1.2089
-28.536
-26.3967
-2.94834
-5.23778
-7.41782
-9.74429
-12.8134
-14.9177
-14.4234
-21.3057
-25.9427
-23.5965
-17.7757
-18.3489
-20.9544
-31.9586
-29.9298
-35.0139
-33.5536
-35.6175
-35.6593
-36.1351
-35.2613
-35.3761
-34.0509
-2.96258
-2.40557
-2.7177
-3.80312
-3.92638
-3.30264
-4.04318
-5.79613
-6.84227
-8.02783
-6.40445
-8.10648
-8.09456
-8.95473
-12.9776
-12.2171
-13.7266
-13.8929
-16.7813
-15.0206
-14.8984
-14.1752
-16.1558
-17.6033
-17.1343
-18.3588
-18.5479
-18.3341
-19.1678
-18.3623
-19.5031
-20.0038
-20.0583
-18.8748
-20.6516
-20.055
-20.5562
-21.7308
-22.7628
-25.7743
-25.0434
-21.8397
-21.9619
-22.8698
-22.4186
-25.9992
-25.8165
-27.0562
-26.2319
-27.5529
-26.9761
-3.52535
-3.58879
5.33604
5.84435
6.47824
6.94148
7.6625
8.21387
5.93792
5.79366
6.73792
7.81546
8.42564
7.10323
6.82567
7.31705
6.60182
6.98277
8.08793
8.08763
8.91578
8.8268
9.66886
9.11158
9.63964
7.68622
6.27454
6.64086
10.3803
9.56073
1.03334
2.96802
5.68585
7.29131
1.3616
-0.648832
-2.78184
-32.4003
-28.6719
-5.73938
-8.77982
-12.1329
-14.3886
-18.318
-19.7525
-23.5045
-27.3039
-30.3525
-25.0649
-37.5799
-35.0796
-38.4076
-38.6899
-39.1005
-37.9409
-38.9883
-38.1469
-4.27687
-4.01072
-5.15786
-5.22647
-6.07645
-5.42256
-6.28787
-7.71795
-8.60544
-9.70978
-8.44395
-9.70349
-13.7141
-11.014
-12.1955
-13.1308
-14.1191
-14.0939
-15.2814
-17.5631
-16.062
-17.4388
-15.9001
-18.7132
-18.0499
-20.3128
-18.7523
-19.6399
-18.951
-19.1264
-19.0139
-20.0072
-20.3988
-20.3517
-20.5183
-20.16
-21.3224
-21.1515
-21.8517
-22.141
-23.3867
-22.308
-24.3976
-23.4795
-23.6357
-25.2129
-24.946
-25.5768
-25.055
-3.97045
-4.14412
-4.9639
-4.97854
4.89016
5.49044
6.07362
6.64154
7.29464
7.96159
9.50713
8.80875
4.26578
4.88305
10.594
10.2095
8.37225
8.90461
8.89744
8.56604
9.14976
10.0811
9.89306
10.8797
10.6261
11.2717
10.4358
12.0975
12.5939
13.4448
12.5828
9.35833
10.3887
6.29391
4.29336
10.6734
9.10502
5.26721
2.74254
-1.21776
3.62726
-4.13756
-6.85366
-37.5276
-33.8218
-11.1545
-15.6529
-22.5008
-24.349
-33.4975
-38.4284
-32.7575
-39.8838
-39.9982
-41.5343
-40.9909
-42.2731
-40.9684
-5.8309
-6.27412
-6.94061
-7.10065
-8.14724
-7.57131
-9.01285
-9.86187
-10.8742
-11.9165
-10.8861
-11.9217
-14.8396
-13.882
-13.1854
-14.1668
-17.7693
-14.9703
-15.3126
-16.9458
-16.4444
-18.2063
-17.5133
-17.8093
-17.8353
-19.3116
-18.8093
-19.9207
-20.107
-19.7047
-19.7788
-19.4936
-19.4576
-20.4438
-20.613
-20.6806
-21.0173
-20.4463
-20.6884
-20.2854
-21.8184
-21.3309
-23.6018
-22.4459
-24.7865
-23.5308
-21.8659
-25.0679
-24.5671
-4.25726
-4.48831
-5.19114
-5.41294
-6.1807
-6.39101
5.38467
6.06902
6.62353
7.36259
10.8175
9.00965
9.97463
8.13243
3.53169
4.12685
4.52407
5.22286
2.71943
3.31008
1.85942
2.42946
12.5973
11.2473
10.8659
11.8511
11.1165
11.9133
12.3864
12.061
13.2497
12.4716
12.7778
12.085
11.9002
14.074
15.0242
15.2646
16.5466
15.9734
13.7485
13.0963
10.053
8.13659
14.4293
13.1017
8.93233
6.54309
-0.305635
-5.19643
6.4894
2.62377
-8.56714
-13.9728
-45.3215
-42.7387
-23.1666
-31.6507
-40.7515
-46.1504
-39.6816
-46.3232
-44.2692
-46.3663
-46.0286
-7.35166
-8.14413
-10.2968
-10.3699
-9.39648
-9.40765
-11.1464
-12.1639
-13.0789
-13.9289
-13.4562
-14.167
-16.0169
-15.0048
-14.702
-15.2927
-18.0261
-17.8717
-16.9299
-18.3735
-16.9274
-17.418
-18.6645
-18.9682
-18.221
-19.4514
-19.4346
-20.6747
-20.2648
-20.2632
-20.1897
-20.1334
-20.7579
-20.7205
-20.5489
-20.7323
-20.6257
-20.4035
-21.1898
-20.5759
-21.2682
-23.6346
-21.4563
-21.7797
-25.1551
-21.6885
-7.76123
-4.21456
-4.51044
-5.23256
-5.57766
-6.32752
-6.63714
-7.32827
-4.18899
-4.47608
-3.99131
-4.35349
-3.66308
-4.06702
0.998585
1.49163
0.141778
0.564018
-0.694053
-0.320542
-1.44568
-1.16774
-3.25913
-3.70245
-2.72576
-3.19207
-2.12863
-1.92296
-2.60495
5.69118
6.54523
7.177
8.15215
10.0899
11.0173
8.9766
3.60224
4.29565
4.67242
5.43294
2.59034
3.24897
1.52256
2.12706
10.8838
13.5837
14.9974
13.722
14.221
13.8405
15.394
14.7647
15.8217
14.9597
13.1394
13.3417
11.8663
16.4357
16.8006
17.1468
18.4917
18.3632
20.0882
20.0897
17.7351
17.2864
14.4116
12.3517
18.9316
17.598
12.6622
9.81984
-10.4944
-1.30367
-8.94262
8.39992
2.91866
-20.4245
-24.739
-47.7605
-50.1514
-35.4764
-65.831
-55.7547
-54.1338
-46.7735
-8.80708
-9.5755
-11.7084
-11.897
-12.0022
-10.7206
-11.4641
-13.5265
-13.9995
-15.1061
-15.3915
-15.0097
-15.9808
-15.6792
-16.3762
-17.1851
-16.2455
-19.4199
-18.8716
-17.726
-18.083
-18.8906
-18.5403
-19.5043
-19.4518
-20.3932
-20.402
-20.5686
-20.466
-20.9443
-20.9303
-20.8476
-21.1571
-20.8845
-20.9684
-20.9371
-20.637
-21.053
-20.6388
-20.4847
-24.7772
-20.7044
-9.10991
-7.58621
-8.39556
-5.12873
-5.53835
-6.25263
-6.64505
-7.31572
-4.90284
-5.30056
-4.61879
-5.06428
-4.20753
-4.68224
0.48948
1.00504
-0.482364
-0.0625539
-1.43916
-1.06302
-2.23657
-2.01503
-3.65989
-4.17281
-3.00681
-2.78987
-3.55176
5.86811
6.89351
7.45151
8.72754
9.54485
3.47548
4.25448
4.51951
5.42376
2.19332
2.91331
0.879328
1.54801
8.93551
11.2155
9.77276
17.2365
16.9883
16.4396
18.2465
17.4556
18.0388
15.9697
14.3261
14.0938
12.2693
20.2391
18.9337
19.0957
21.9472
21.8806
23.9626
24.0664
22.1801
22.3312
19.1448
17.116
24.1596
22.6564
17.4526
13.8749
-13.1375
-21.6844
-2.2264
-12.0528
11.0919
3.37558
-28.8269
-30.555
-40.3035
-87.8673
-80.1545
-10.0525
-10.692
-11.6292
-12.718
-13.4424
-13.2103
-13.2476
-12.6695
-16.0353
-16.6197
-17.2019
-17.2174
-16.4503
-17.7426
-17.054
-17.8953
-18.2173
-18.5574
-18.2498
-18.0678
-19.746
-19.4148
-18.8835
-19.0875
-19.7517
-19.4565
-20.1532
-20.4306
-20.6381
-20.6595
-21.165
-20.9996
-21.0335
-21.1531
-21.3869
-21.3457
-21.3935
-21.3204
-19.9983
-21.58
-20.818
-30.1342
-9.04744
-9.89868
-7.73479
-8.62931
-5.97599
-6.44538
-7.29741
-5.77361
-6.28848
-5.31459
-5.89611
-4.68301
-5.26957
-0.257816
0.222608
-1.33393
-0.915017
-2.38983
-2.01929
-3.22028
-3.03724
-4.02606
-3.85298
-4.6128
5.76935
7.01026
7.63954
7.18765
3.00181
3.87629
4.05396
5.09663
1.49417
2.27757
0.00866677
0.793155
9.28467
7.83811
11.5987
10.0772
17.4563
17.4204
21.0629
20.3146
19.6512
18.7252
21.3886
21.0686
12.4124
16.8137
15.2354
14.1272
23.373
23.2515
25.8058
25.5257
27.0521
27.9145
26.5239
28.0088
24.0411
22.3434
28.7616
27.5359
23.671
19.7555
21.5329
-18.7788
-28.526
13.9881
-6.03667
-17.651
-32.2186
-28.1792
-13.8481
-10.2192
-11.0415
-11.7351
-12.7223
-13.6016
-15.9018
-14.4747
-15.3587
-17.6908
-17.2425
-18.7452
-18.8114
-17.2591
-18.5739
-19.0897
-19.2034
-19.3582
-18.9386
-19.2454
-19.4978
-19.3932
-19.3507
-20.22
-20.0213
-19.7595
-19.8377
-20.1571
-21.043
-20.5729
-20.7598
-21.0884
-21.1039
-21.2532
-21.2467
-21.0517
-21.1677
-21.8488
-21.148
-9.10101
-9.82001
-7.20071
-7.7424
-8.64115
-6.60078
-7.24063
-5.91619
-6.57401
-5.1836
-5.85606
-1.20473
-0.726447
-2.4345
-1.98772
-3.54415
-3.24075
-4.37087
-4.2293
-5.05844
7.10238
5.3259
6.20903
5.82488
2.31049
3.19553
4.16583
3.38044
0.711076
1.52745
-1.00026
-0.215566
9.06472
7.08105
5.74331
11.3874
9.63672
17.9109
20.6844
19.5883
20.4539
24.9445
23.5885
24.7825
22.6669
22.9423
14.951
12.4472
17.6583
16.3054
19.2509
27.6079
27.1382
30.8551
33.3043
30.3959
31.1672
31.7708
32.4662
33.4391
28.762
29.7272
29.8657
25.484
27.0544
25.7198
21.2175
-21.4996
-39.5087
-36.0767
-15.8453
-10.2841
-14.3957
-14.8913
-11.31
-11.5981
-12.4493
-12.9868
-13.6786
-14.3195
-16.1863
-15.9634
-17.5494
-17.2568
-19.756
-19.7997
-18.7278
-18.9669
-20.1951
-20.0094
-19.3673
-19.3428
-20.0059
-20.0897
-20.131
-20.6595
-20.5194
-20.3398
-20.5576
-20.9215
-20.7986
-21.0972
-21.0329
-20.9977
-20.9738
-21.0169
-21.0554
-10.2852
-8.01147
-8.60406
-9.36518
-9.66927