/*--------------------------------*- C++ -*----------------------------------*\
  =========                 |
  \\      /  F ield         | OpenFOAM: The Open Source CFD Toolbox
   \\    /   O peration     | Website:  https://openfoam.org
    \\  /    A nd           | Version:  8
     \\/     M anipulation  |
\*---------------------------------------------------------------------------*/
FoamFile
{
    version     2.0;
    format      ascii;
    class       volVectorField;
    location    "11000";
    object      U;
}
// * * * * * * * * * * * * * * * * * * * * * * * * * * * * * * * * * * * * * //

dimensions      [0 1 -1 0 0 0 0];

internalField   nonuniform List<vector> 
4109
(
(10.1197 0.000522783 0)
(10.1223 0.000552586 3.86764e-21)
(10.124 0.00250457 0)
(10.1218 -0.000216885 -8.3335e-21)
(10.1241 0.00150626 4.00844e-22)
(10.1269 0.00237174 6.67483e-23)
(10.1278 0.00251376 -2.46143e-22)
(10.1334 0.00401679 0)
(10.1288 0.00239034 0)
(10.123 0.000387734 -2.86688e-21)
(10.125 0.00129233 3.48536e-21)
(10.1338 0.00314513 1.53548e-21)
(10.1363 0.00797817 2.24828e-21)
(10.1368 0.0042968 -1.09167e-22)
(10.1346 0.00331301 2.37433e-21)
(10.13 0.0022235 -8.93819e-22)
(10.1243 0.000617739 5.51133e-22)
(10.1267 0.00160398 6.44892e-23)
(10.1356 0.00323639 0)
(10.1404 0.00369841 -3.23262e-21)
(10.159 0.00816474 1.84919e-21)
(10.1427 0.00842493 -5.07659e-21)
(10.1466 0.00601297 -5.73256e-22)
(10.1312 0.00229319 -2.23773e-21)
(10.1285 0.00175635 9.12123e-21)
(10.1256 0.000843614 3.08596e-21)
(10.1329 -0.00211947 0)
(10.1362 -0.00228166 9.06919e-22)
(10.1404 -0.00217153 -6.57934e-23)
(10.136 0.00326013 0)
(10.1419 0.00323781 0)
(10.1465 0.00464743 3.92078e-21)
(10.2209 -2.14577e-05 -1.01539e-21)
(10.1507 0.00705235 -7.1076e-21)
(10.1489 0.00602139 0)
(10.132 0.0023396 -1.60455e-22)
(10.1279 0.00153836 -9.06107e-21)
(10.1266 0.000754468 -5.02621e-21)
(10.1328 -0.00216772 -1.44998e-21)
(10.1249 -0.00161561 0)
(10.1421 -0.00303782 -1.37535e-22)
(10.1392 -0.00333374 4.96446e-22)
(10.1418 -0.00893193 -1.48158e-22)
(10.1365 0.00334365 -2.26588e-21)
(10.1421 0.00323775 0)
(9.48072 0.0260898 7.07986e-22)
(10.135 -0.0003719 3.81303e-22)
(10.1489 0.00466783 -1.40911e-22)
(10.1496 0.00403278 6.76806e-22)
(10.2167 -0.00105445 4.63012e-21)
(10.1535 0.00534052 4.26159e-21)
(10.1308 0.00203026 -1.32278e-22)
(10.1291 0.0018498 -8.79615e-21)
(10.1281 0.00102592 1.97873e-21)
(10.1329 -0.0025015 -9.47454e-22)
(10.1266 -0.00186351 0)
(10.119 -0.000356084 0)
(10.1416 -0.00527548 1.17321e-22)
(10.143 -0.00417287 1.57782e-22)
(10.1389 -0.00347595 0)
(10.2401 -0.00276688 -1.44645e-22)
(8.88597 0.0142789 0)
(10.1362 0.00330502 -7.7363e-21)
(10.1427 0.00324007 0)
(10.1487 0.00439777 6.05788e-22)
(10.2461 -0.000862713 -3.86876e-22)
(9.74634 0.0280898 1.58276e-20)
(10.15 0.00375547 0)
(10.1508 0.00631899 -9.57599e-22)
(10.2301 -0.000417219 -5.8408e-22)
(10.1298 0.00127571 2.6489e-21)
(10.1309 0.00226675 5.86918e-21)
(10.1355 0.00387938 0)
(10.1318 0.00141126 1.19599e-20)
(10.1331 0.0022668 -1.785e-20)
(10.1339 -0.0028458 9.55578e-22)
(10.1284 -0.00195326 0)
(10.1266 -0.00176284 0)
(10.1205 -0.000465289 0)
(10.2207 0.00675871 1.69726e-22)
(10.1468 -0.00464656 8.11608e-22)
(10.1416 -0.00486248 -7.41439e-22)
(10.1451 -0.00360853 8.8682e-23)
(10.1395 -0.00389667 0)
(10.3543 0.0186107 1.20947e-21)
(10.258 3.74136e-06 0)
(9.37364 -0.0429403 0)
(9.21594 0.0310559 -3.08724e-20)
(8.84225 0.0202387 -1.05287e-21)
(10.1348 0.00273331 3.02222e-21)
(10.1371 0.00329115 7.73945e-21)
(10.1432 0.00333685 0)
(10.1492 0.00449682 -3.17687e-22)
(10.1506 0.00351039 -1.97913e-22)
(10.2875 -0.00495936 0)
(9.9927 0.0122722 0)
(10.1483 0.00594475 0)
(10.2206 0.000547125 3.09614e-22)
(10.1371 0.00394397 6.29613e-22)
(10.1342 0.00322064 -1.1794e-20)
(10.1318 0.00248849 1.34315e-20)
(10.1365 0.0038411 8.4726e-21)
(10.1383 0.0045218 5.3973e-21)
(10.1346 0.00274027 6.28401e-21)
(10.1341 0.00122865 2.45394e-21)
(10.1347 -0.00333007 3.99563e-22)
(10.1305 -0.00263543 3.5359e-22)
(10.1263 -0.00154147 0)
(10.1212 -0.000621883 2.855e-21)
(10.2091 0.0018214 1.57222e-22)
(10.3295 0.00916121 0)
(10.1451 -0.00537195 -3.22439e-22)
(10.1455 -0.00428752 -3.18719e-23)
(10.1454 -0.00403143 0)
(10.1399 -0.00420795 0)
(9.01874 -0.0380273 -1.4372e-20)
(10.1706 -0.0132144 -1.07928e-21)
(9.90987 -0.0362116 1.72624e-20)
(9.5675 0.0395097 -7.21476e-21)
(9.04841 0.0114374 1.10082e-20)
(8.75676 -0.00320205 8.62438e-21)
(10.2989 0.00205867 1.37787e-22)
(10.1362 0.00330892 -1.38122e-20)
(10.1394 0.0039102 -2.38965e-21)
(10.1441 0.0036821 -7.64043e-22)
(10.1495 0.00479085 0)
(10.1514 0.00386923 6.31365e-22)
(10.1472 0.00611221 -2.01498e-21)
(10.0767 0.00439743 3.38735e-21)
(10.3091 -0.00162294 0)
(10.2078 0.00090963 2.35603e-22)
(10.1403 0.00521607 6.98522e-21)
(10.1373 0.00405909 -4.38734e-21)
(10.1387 0.00472621 -8.28709e-21)
(10.1409 0.00582651 5.13306e-22)
(10.1372 0.00155835 0)
(10.1375 0.0037962 -4.98235e-21)
(10.1355 -0.00386378 -7.81504e-22)
(10.1307 -0.00281498 0)
(10.1268 -0.00171305 1.07622e-21)
(10.1225 -0.000758087 -2.85466e-21)
(10.2107 -0.00126696 -2.45352e-23)
(10.3261 -0.00306416 0)
(10.143 -0.00663493 0)
(10.1466 -0.00444005 -3.04203e-22)
(10.1457 -0.00420866 1.5191e-22)
(10.1404 -0.00469766 0)
(9.13902 -0.0346397 -8.23369e-21)
(9.85909 -0.0391262 5.30689e-22)
(9.08635 0.00957684 0)
(9.64724 0.0186159 -3.79722e-21)
(8.76038 0.022523 0)
(10.2684 -0.00130505 -1.28654e-22)
(10.1399 0.00437853 1.10117e-20)
(10.1395 0.003912 2.38946e-21)
(10.145 0.00417908 7.26449e-22)
(10.1502 0.00561987 2.35178e-21)
(10.1514 0.00440429 1.1049e-21)
(10.1467 0.0069623 1.23394e-21)
(10.2021 0.00307876 -3.90434e-23)
(10.1213 0.00211337 -3.43316e-24)
(10.3213 -0.00265827 -2.35427e-22)
(10.1441 0.00619276 1.96123e-21)
(10.1401 0.00451728 0)
(10.1416 0.00626809 -3.18698e-22)
(10.1449 0.00725698 -1.69224e-21)
(10.1426 0.00639844 -2.10623e-22)
(10.141 0.00538492 0)
(10.1408 0.00177895 0)
(10.1365 -0.00457268 2.9966e-22)
(10.132 -0.00341564 1.16568e-22)
(10.1281 -0.00208739 -2.32261e-21)
(10.1232 -0.000647505 -4.80795e-22)
(10.2068 -0.0045861 -2.06991e-23)
(10.3266 -0.00414177 0)
(10.1409 -0.00767861 6.231e-22)
(10.1484 -0.00455683 -1.48995e-22)
(10.1457 -0.00489231 -6.04186e-22)
(10.1414 -0.00561439 -3.68752e-22)
(9.77439 -0.0296489 -5.5392e-22)
(8.8828 -0.0128509 0)
(9.70548 0.0164598 3.92089e-24)
(9.09608 0.00600095 4.71388e-22)
(8.76178 0.0207013 1.06994e-22)
(10.286 0.00324558 1.78146e-22)
(10.1456 0.00443491 -2.53094e-23)
(10.1462 0.00485369 2.53011e-23)
(10.1519 0.0062135 -1.21991e-21)
(10.1479 0.00757817 -1.98754e-21)
(10.1549 0.00409792 -8.80085e-22)
(10.1906 0.0062311 1.05972e-21)
(10.1074 0.00497609 -2.2691e-22)
(10.3172 0.000767968 1.36467e-22)
(10.1469 0.00535498 -9.45764e-22)
(10.1477 0.00636094 4.95627e-22)
(10.146 0.00828881 -4.96435e-22)
(10.1487 0.00754607 -6.81476e-22)
(10.1477 0.0093193 4.92467e-22)
(10.146 0.00770151 2.46614e-22)
(10.1421 0.00501425 1.86191e-21)
(10.1449 0.000841378 0)
(10.1378 -0.00529432 -6.38627e-22)
(10.1332 -0.00388274 3.09528e-22)
(10.1295 -0.00251083 1.99177e-21)
(10.1248 -0.000892624 3.76408e-22)
(10.1929 -0.00629135 -3.49757e-22)
(10.3171 -0.00338719 -5.89456e-22)
(10.1398 -0.00786671 3.99229e-22)
(10.1495 -0.00534214 2.62363e-23)
(10.1463 -0.00650197 8.82238e-22)
(10.1428 -0.00686715 0)
(9.76131 -0.019169 -1.31337e-21)
(8.86913 -0.00639221 6.34826e-22)
(9.07549 -0.00157379 0)
(9.68093 0.011774 5.65073e-23)
(8.75443 0.0197015 -7.38349e-22)
(10.313 0.0116547 1.98005e-22)
(10.1528 0.00531976 0)
(10.1531 0.00566213 -9.2855e-22)
(10.1565 0.00419801 -3.03805e-21)
(10.1737 0.0130425 2.20968e-21)
(10.1067 0.00387618 1.34885e-24)
(10.3164 0.002484 -4.72157e-22)
(10.1533 0.00703943 1.10939e-21)
(10.1536 0.00847255 2.06891e-21)
(10.1501 0.00887656 2.03921e-21)
(10.1543 0.0101954 -1.41312e-21)
(10.1519 0.0101461 -1.03806e-21)
(10.1498 0.0104188 0)
(10.1473 0.00743662 -2.09538e-21)
(10.146 0.00574333 -2.13935e-21)
(10.1493 0.000841535 0)
(10.1392 -0.00592003 -2.92818e-21)
(10.1346 -0.00422863 7.66771e-21)
(10.1312 -0.00287815 3.40612e-21)
(10.1263 -0.000971519 -6.4228e-22)
(10.1769 -0.00777157 -2.65345e-22)
(10.3019 -0.0040577 1.57659e-22)
(10.1509 -0.00736855 -7.1067e-22)
(10.1405 -0.0080104 9.96592e-22)
(10.1407 -0.00630721 0)
(10.1483 -0.00888628 0)
(10.1446 -0.00788398 0)
(9.82313 -0.0166471 2.90136e-22)
(8.87942 -0.00898748 4.84208e-22)
(9.68282 0.00518896 5.2893e-23)
(9.07972 -0.00895988 6.59628e-23)
(8.76069 0.0212313 -6.46393e-23)
(10.3286 0.0174058 -4.88417e-22)
(10.1584 0.00307146 0)
(10.1566 0.00472593 4.89879e-22)
(10.1652 0.0164947 7.42274e-22)
(10.1062 0.00380833 -1.11412e-21)
(10.3181 0.00804539 5.77866e-22)
(10.1571 0.00684455 -3.36329e-22)
(10.1584 0.00752583 -2.72116e-22)
(10.1553 0.0119661 -3.94141e-22)
(10.1597 0.0100894 0)
(10.1567 0.0139836 0)
(10.1542 0.0113775 -3.20158e-22)
(10.1523 0.0113582 2.70797e-21)
(10.1505 0.00816209 -1.11837e-20)
(10.1503 0.0058592 0)
(10.1538 0.000960384 0)
(10.1372 -0.00502825 4.12926e-21)
(10.1344 -0.00404976 -5.60434e-21)
(10.1283 -0.00110945 2.38723e-21)
(10.1395 -0.00566514 4.13201e-21)
(10.1526 -0.0104398 1.86577e-21)
(10.279 -0.00504231 -3.29983e-21)
(10.1513 -0.00929564 -9.79947e-23)
(10.1429 -0.00689417 0)
(10.1464 -0.00853893 0)
(10.1508 -0.0100384 -5.79145e-22)
(8.88508 -0.00588974 2.94095e-22)
(9.86049 -0.0142493 5.13694e-22)
(9.08962 -0.0249317 8.08511e-22)
(9.68726 -0.00847245 -7.79875e-22)
(8.76626 0.0185044 0)
(10.3381 0.0272512 1.0495e-21)
(10.0158 -0.0174742 1.28532e-19)
(10.1675 0.0158506 0)
(10.1636 0.00995822 -2.33554e-22)
(10.1129 0.00559602 -1.49823e-20)
(10.3296 0.00657127 -4.25992e-21)
(10.1529 0.0129963 1.46744e-21)
(10.1558 0.0114484 -4.54547e-22)
(10.1611 0.0120413 2.86425e-21)
(10.154 0.016665 4.50639e-22)
(10.1632 0.0144976 -8.25368e-23)
(10.1585 0.0158272 -1.11096e-22)
(10.1568 0.0125628 0)
(10.1552 0.012272 -6.05967e-21)
(10.1543 0.00894624 2.26121e-20)
(10.1549 0.00632988 0)
(10.1556 0.00431455 7.00028e-21)
(10.1571 -0.000646562 0)
(10.129 -0.000613005 0)
(10.1351 -0.0035163 2.41804e-21)
(10.132 -0.00246553 -3.68214e-21)
(10.1405 -0.00555225 2.075e-22)
(10.1444 -0.00710564 1.60822e-21)
(10.1387 -0.0145189 0)
(10.2596 -0.00887753 1.42761e-21)
(10.1558 -0.0112567 1.26078e-21)
(10.148 -0.00901054 6.05326e-22)
(10.1532 -0.0103953 0)
(9.8888 -0.00619912 1.21821e-21)
(8.86758 -0.000141952 -6.96281e-22)
(9.10581 -0.0298181 4.08595e-20)
(9.74103 -0.0150089 -2.82166e-20)
(8.7812 0.0160063 3.20705e-20)
(10.3336 0.0299789 -1.04212e-21)
(10.0116 -0.00270882 -2.12857e-19)
(10.0142 -0.0198727 5.55605e-20)
(10.0108 -0.0138409 -6.24662e-20)
(10.022 -0.0211794 -8.27583e-20)
(10.0172 -0.00651316 1.88722e-19)
(10.028 -0.0266658 7.33488e-20)
(9.97291 0.0171391 2.77621e-20)
(10.3405 -0.0152748 1.95199e-20)
(10.2798 -0.0294899 -1.84739e-20)
(10.1917 -0.000132649 -1.49647e-21)
(10.2033 0.001793 -5.97048e-21)
(10.1579 0.011416 -2.87124e-22)
(10.1574 0.0177854 0)
(10.1617 0.0209162 -1.67281e-21)
(10.1652 0.0160229 0)
(10.161 0.0176585 0)
(10.1612 0.00788488 4.36699e-20)
(10.1599 0.013782 1.10291e-21)
(10.1587 0.0130587 1.88884e-20)
(10.1589 0.00966239 -1.90301e-20)
(10.1589 0.00369287 -6.77297e-21)
(10.1583 -0.0014097 0)
(10.1603 0.000790289 0)
(10.1565 -0.00255306 1.26119e-20)
(10.1319 -0.00168145 -5.39545e-22)
(10.1355 -0.00320583 -7.57475e-21)
(10.1426 -0.00594698 -4.84084e-21)
(10.1462 -0.0074503 -5.20777e-21)
(10.1497 -0.00935188 -7.58095e-22)
(10.139 -0.019801 0)
(10.2597 -0.0109619 -2.95185e-21)
(10.1589 -0.0122237 -1.13305e-21)
(10.1552 -0.0102459 -1.65713e-23)
(9.89174 0.000597039 7.65532e-21)
(8.7656 0.00648177 5.74295e-22)
(8.97731 0.0202305 2.60209e-20)
(10.3268 0.011334 9.36804e-22)
(10.0008 -0.00197574 -5.61702e-20)
(10.0042 -0.00162369 5.61944e-20)
(10.007 -0.00903351 0)
(10.0193 -0.0246154 -2.27441e-20)
(10.0112 -0.0246206 8.55596e-20)
(10.0069 -0.0176149 7.2254e-20)
(10.1498 -0.00528816 0)
(10.1551 -0.0109783 7.04427e-21)
(10.1567 -0.0250615 5.64334e-21)
(10.0258 -0.00782309 -2.87999e-21)
(10.0314 -0.0193405 -1.90858e-20)
(10.0242 -0.0120498 4.80205e-20)
(10.0341 -0.0269418 -6.5343e-21)
(10.0258 -0.0304442 2.77483e-20)
(9.51766 0.0553161 -6.076e-20)
(10.3523 -0.0333584 -4.43705e-21)
(10.3281 0.00757358 2.71137e-20)
(10.273 -0.00107734 -9.8688e-21)
(10.1691 0.0133991 -1.68392e-22)
(10.1652 0.00724931 1.72826e-21)
(10.1565 0.0225196 -1.31166e-20)
(10.1693 0.0209608 0)
(10.1676 0.018309 0)
(10.164 0.0197429 -1.08938e-21)
(10.1639 0.0102044 0)
(10.1635 0.0150019 0)
(10.1629 0.0135795 -6.45419e-21)
(10.1657 0.00203015 0)
(10.1645 0.00461506 -3.1649e-20)
(10.1607 -0.00498484 -7.61891e-20)
(10.1647 -0.00157985 5.15296e-20)
(10.1657 -0.0165271 0)
(10.1735 -0.0339537 1.59035e-20)
(10.1346 -0.0015808 8.01423e-21)
(10.1383 -0.00392988 -4.11913e-22)
(10.1454 -0.00664622 -2.01281e-20)
(10.148 -0.00788263 1.13678e-20)
(10.1514 -0.00973687 2.14273e-22)
(10.1569 -0.0104416 -1.64035e-22)
(10.1442 -0.0206535 8.48687e-22)
(10.2491 -0.0144602 1.0654e-21)
(10.161 -0.011718 -4.75839e-22)
(9.93293 -0.0197108 -1.17743e-20)
(8.57837 0.00817622 1.82045e-20)
(10.0004 -0.00286479 -1.16407e-19)
(10.003 -0.00950463 4.95144e-20)
(10.0163 -0.0308073 -2.80882e-20)
(10.0092 -0.0286039 1.95102e-21)
(10.0052 -0.0203268 -1.37933e-19)
(10.1443 -0.0173743 -1.27016e-20)
(10.1378 -0.00784073 1.08047e-20)
(10.1448 -0.0341505 0)
(10.184 -0.056242 -3.01375e-20)
(10.1624 -0.0451708 -1.65832e-20)
(10.0401 -0.016402 1.6865e-22)
(10.0392 -0.0109791 -2.70453e-20)
(10.0414 -0.0308608 -1.9242e-22)
(10.0335 -0.0353824 -6.31498e-21)
(10.0237 -0.0376701 -2.91914e-20)
(8.65194 0.044262 -4.47967e-20)
(9.83372 0.103506 1.29628e-20)
(10.364 0.0415969 -1.3075e-20)
(10.3117 0.0226613 1.09215e-21)
(10.1779 0.0168048 4.66618e-21)
(10.1679 0.010012 2.81215e-21)
(10.1714 0.00907244 9.26716e-21)
(10.1591 0.0225838 -2.52115e-21)
(10.1699 0.0231588 2.77735e-21)
(10.1702 0.0206155 0)
(10.1676 0.0223378 -8.9924e-21)
(10.1674 0.0134651 -1.0365e-20)
(10.1678 0.0161235 0)
(10.1736 0.00194787 -2.23582e-20)
(10.1721 0.00573256 -1.11704e-20)
(10.1733 -0.00329359 4.92467e-20)
(10.1709 -0.00945517 -1.83699e-20)
(10.1811 -0.0231483 -1.12865e-20)
(10.1951 -0.041162 4.74212e-20)
(10.1378 -0.00203344 -4.83801e-21)
(10.1416 -0.00474647 8.98063e-21)
(10.1632 -0.0128245 2.2415e-21)
(10.1506 -0.00863606 6.6347e-21)
(10.1495 -0.00850201 0)
(10.153 -0.0102978 1.79267e-21)
(10.1584 -0.0107045 9.99245e-23)
(10.1539 -0.0103295 0)
(10.1536 -0.0178197 -1.84105e-21)
(10.1495 -0.0180195 -1.56248e-21)
(10.2878 -0.00593367 1.36069e-21)
(10.0372 -0.0552302 3.23395e-20)
(10.0008 0.00226676 -1.46978e-20)
(10.0003 -0.00386024 0)
(10.0021 -0.0120303 3.14738e-20)
(10.0142 -0.0363879 -7.0128e-21)
(10.0068 -0.0331533 0)
(10.0036 -0.0233584 1.04855e-20)
(10.2207 -0.069114 -5.38055e-20)
(10.1206 -0.0105269 -6.90254e-23)
(10.1008 -0.0129386 0)
(10.1302 -0.0240938 -5.05818e-21)
(10.1345 -0.043265 -1.21361e-21)
(10.0575 -0.0100884 0)
(10.0784 -0.00946002 0)
(10.1675 -0.0701452 1.45896e-20)
(10.148 -0.0552183 -1.46224e-22)
(10.051 -0.0260742 1.04384e-19)
(10.0432 -0.0388965 4.98898e-20)
(10.0332 -0.0448618 1.27458e-20)
(10.0211 -0.0446403 0)
(8.45731 -0.00198734 3.5715e-20)
(9.41739 0.108927 0)
(10.2835 0.057973 1.03663e-21)
(10.3183 0.0251719 -1.20711e-21)
(10.1958 0.0180911 6.24398e-21)
(10.1722 0.0124919 1.19656e-20)
(10.1769 0.0102269 0)
(10.1604 0.0240903 3.83997e-21)
(10.1718 0.0254178 -8.11552e-22)
(10.1732 0.0234587 -3.50539e-21)
(10.1721 0.0251158 -1.6778e-21)
(10.1729 0.0168244 2.02115e-22)
(10.1838 0.00153656 -1.29327e-20)
(10.1806 0.00643635 1.45063e-20)
(10.1855 -0.00515576 1.34354e-20)
(10.1849 -0.0134557 -1.21914e-20)
(10.201 -0.0269596 -4.74804e-20)
(10.228 -0.0455908 3.37797e-24)
(10.1416 -0.00257163 -2.68774e-21)
(10.151 -0.00716556 -2.96334e-20)
(10.1463 -0.00598215 1.85998e-20)
(10.1726 -0.0182951 -2.11372e-21)
(10.1648 -0.0129034 -6.40973e-22)
(10.1547 -0.0110805 -1.70075e-21)
(10.1566 -0.0118225 0)
(10.1598 -0.0112339 1.3104e-21)
(10.1569 -0.0120138 8.54222e-21)
(10.1589 -0.0128463 0)
(9.6649 -0.0878152 -8.22375e-20)
(9.38434 -0.0905979 1.47446e-20)
(10.1402 -0.00816914 0)
(10.3265 0.00276449 5.39692e-21)
(10.0004 0.00279668 1.43861e-19)
(10.0022 0.00844734 -1.36764e-19)
(10.0046 0.00104041 0)
(10.0003 -0.00456916 -1.95933e-20)
(10.0014 -0.0137757 7.18994e-20)
(10.0115 -0.0425233 5.93402e-21)
(10.0037 -0.0352038 0)
(10.0013 -0.0245218 -1.65578e-19)
(10.2051 -0.0913328 5.37798e-20)
(10.2663 -0.0674157 2.2634e-20)
(10.1189 -0.0326663 -3.3998e-21)
(10.1015 -0.0267188 0)
(10.1186 -0.0514687 4.85052e-21)
(10.0819 -0.0232819 0)
(10.065 -0.0273035 -8.72363e-20)
(10.1471 -0.0803746 1.53741e-20)
(10.1315 -0.0602346 3.86654e-21)
(10.0554 -0.0402272 -2.00903e-20)
(10.0446 -0.0518542 -1.1727e-20)
(10.0301 -0.053305 4.04472e-20)
(10.0165 -0.0520204 -3.83484e-20)
(8.16081 -0.0231895 5.07032e-21)
(9.11396 0.0769009 3.32713e-21)
(9.05085 -0.0677829 6.79736e-21)
(10.2356 0.0382486 -2.3158e-21)
(10.3408 0.0272779 2.11532e-21)
(10.2081 0.0225451 -2.38026e-21)
(10.1786 0.0164844 0)
(10.1847 0.0145598 -1.93624e-20)
(10.1621 0.0273232 -4.53596e-21)
(10.1735 0.0282439 7.57477e-21)
(10.1779 0.0266294 1.49505e-21)
(10.1772 0.0273332 1.10444e-20)
(10.1908 0.010603 1.9356e-20)
(10.1962 0.00464227 0)
(10.2005 -0.00370885 0)
(10.2024 -0.0143298 0)
(10.2291 -0.0241509 0)
(10.2668 -0.0398409 -4.67434e-20)
(10.3058 -0.0634185 -7.31315e-20)
(10.1458 -0.00304166 2.6876e-21)
(10.1519 -0.00551203 8.28379e-21)
(10.1666 -0.0137476 2.31745e-21)
(10.1658 -0.0139335 1.76215e-22)
(10.1612 -0.0122643 -1.57407e-21)
(10.1627 -0.0135142 -1.83455e-21)
(10.165 -0.0148976 0)
(10.1587 -0.0117071 0)
(10.1617 -0.0137905 0)
(10.1705 -0.00446623 0)
(10.3663 -0.0137487 3.98702e-20)
(10.2982 -0.0295098 -3.01835e-20)
(10.0006 0.0048452 3.58969e-20)
(10.0023 0.0108661 -2.80007e-20)
(10.0049 0.0140268 -6.9668e-20)
(10.0137 0.00793525 0)
(10.0073 0.0109467 0)
(9.99992 -0.00489819 5.48287e-21)
(10.0009 -0.0153972 4.30627e-20)
(10.0078 -0.0459501 -1.2724e-21)
(10.0001 -0.0396205 -2.96585e-20)
(9.9994 -0.0301195 2.68295e-19)
(10.1824 -0.107199 1.46149e-22)
(10.2518 -0.0954686 4.55567e-20)
(10.3319 -0.104495 -7.17807e-20)
(10.0714 -0.0447526 -6.544e-20)
(10.1023 -0.0508452 2.07657e-20)
(10.0892 -0.0406299 2.99492e-20)
(10.125 -0.0862517 0)
(10.1146 -0.0631387 -1.98563e-21)
(10.0586 -0.0588247 -1.6187e-20)
(10.0413 -0.0623414 -4.45037e-20)
(10.023 -0.0623654 2.25335e-20)
(10.0111 -0.0568612 -1.42384e-20)
(10.3285 -0.0677808 0)
(8.03799 -0.0144862 -4.7666e-21)
(8.96722 0.0593668 2.26343e-21)
(8.85644 -0.0372885 -5.1728e-21)
(10.2084 0.0304284 7.19086e-22)
(10.3521 0.0290951 -7.03314e-22)
(10.2155 0.0307945 0)
(10.1841 0.0284769 0)
(10.1921 0.0277771 1.98804e-20)
(10.1773 0.0321442 0)
(10.1638 0.0352921 -7.60126e-23)
(10.1836 0.0299127 -1.45147e-21)
(10.2009 0.0245183 -1.98688e-20)
(10.21 0.0182433 0)
(10.2187 0.0081594 0)
(10.2256 -0.00593066 0)
(10.2611 -0.0151204 0)
(10.2944 -0.0339246 3.65624e-20)
(10.3373 -0.0485363 2.13602e-19)
(10.3657 -0.0675915 1.71748e-20)
(10.1492 -0.00212396 0)
(10.1556 -0.00580694 -8.38571e-21)
(10.1675 -0.0131691 0)
(10.1667 -0.014674 5.91419e-21)
(10.1676 -0.0170009 -1.54783e-20)
(10.1681 -0.0192186 4.73006e-21)
(10.1679 -0.0166612 -1.61767e-20)
(10.1626 -0.012311 2.60814e-21)
(10.1643 -0.0135406 0)
(10.167 -0.0177081 2.38832e-20)
(10.1792 -0.0113264 0)
(10.2687 0.0176706 1.65149e-20)
(10.0006 0.00603104 -6.63398e-20)
(10.024 0.00792154 2.01468e-20)
(10.0034 0.0164449 0)
(10.0063 0.0204317 -1.20018e-21)
(10.0114 0.0147302 5.67439e-20)
(9.99982 -0.00454659 0)
(9.99905 -0.0147254 -4.79297e-20)
(10.0024 -0.0501744 3.29767e-20)
(9.99526 -0.0388508 0)
(9.99592 -0.0297271 0)
(9.99821 -0.021142 -1.81869e-21)
(10.1556 -0.117116 -2.44023e-21)
(10.3758 -0.143289 1.00429e-19)
(10.2208 -0.121584 -2.29091e-21)
(10.2941 -0.132217 -7.36003e-20)
(10.105 -0.0877158 5.44004e-20)
(10.0758 -0.0604838 0)
(10.0949 -0.066041 -2.45621e-20)
(10.0558 -0.0714828 0)
(10.0311 -0.074054 4.9931e-21)
(10.0152 -0.0694375 4.30339e-20)
(10.0038 -0.0620352 -1.71697e-20)
(10.2778 -0.0441465 0)
(7.97168 -0.0143031 2.83001e-21)
(8.87343 0.0583291 -3.67911e-21)
(8.77243 -0.0338215 -7.70307e-22)
(10.1706 0.0247918 9.30217e-22)
(10.3546 0.0321532 1.2823e-21)
(10.2175 0.0455133 6.02509e-22)
(10.2025 0.0342653 2.1659e-20)
(10.192 0.0326879 -1.0524e-20)
(10.1839 0.0375327 1.2629e-21)
(10.1675 0.0486912 -1.35829e-21)
(10.2142 0.0323746 -2.86122e-20)
(10.2268 0.0271804 1.69923e-20)
(10.2517 0.00461104 0)
(10.2397 0.0185542 0)
(10.2846 -0.00717748 -1.30679e-20)
(10.3523 -0.00679626 7.77405e-20)
(10.3228 -0.0104954 0)
(10.3868 -0.0273191 -2.16486e-19)
(10.4095 -0.0981646 -1.38829e-19)
(10.1534 -0.00199096 4.6005e-21)
(10.1592 -0.00539022 -2.49107e-21)
(10.1663 -0.011928 1.79729e-20)
(10.1677 -0.0190123 4.11169e-21)
(10.1709 -0.0178417 1.344e-20)
(10.1709 -0.0223754 -1.95285e-21)
(10.1721 -0.0176951 3.80144e-22)
(10.1683 -0.0143425 -2.20937e-21)
(10.1694 -0.0195193 8.67877e-21)
(10.1625 -0.0250281 0)
(10.2431 -0.0113441 -2.68124e-22)
(10.0002 0.00576227 -4.06154e-20)
(10.0016 0.0153458 8.27251e-20)
(10.0388 0.00743759 -2.92273e-20)
(10.0282 0.0195712 -5.32128e-20)
(10.0054 0.0232374 3.26342e-20)
(10.0107 0.0237523 -2.44805e-20)
(10.0205 0.0216373 5.20167e-20)
(9.99812 -0.0115136 0)
(9.99964 -0.00369937 0)
(9.99562 -0.0495743 -1.67793e-20)
(9.99021 -0.0373572 -5.57336e-20)
(9.99263 -0.0285317 1.70763e-20)
(9.99556 -0.0198252 1.86053e-21)
(10.1294 -0.12086 -1.73394e-20)
(10.4297 -0.194631 -1.73012e-19)
(10.1871 -0.141318 -4.56205e-21)
(10.3358 -0.183466 2.63749e-20)
(10.2546 -0.170512 2.99636e-20)
(10.0896 -0.0917676 -4.40272e-20)
(10.0717 -0.0773538 -1.30843e-20)
(10.106 -0.120136 2.4399e-20)
(10.0438 -0.0869622 -7.25882e-20)
(10.0215 -0.0847305 0)
(10.0054 -0.0762232 -1.34105e-20)
(9.99426 -0.0625078 -3.59077e-21)
(10.3034 -0.0456763 5.32445e-22)
(7.93228 -0.0224568 0)
(8.78228 0.061577 1.11762e-21)
(8.69507 -0.0299592 0)
(10.1348 0.0194164 -1.33452e-21)
(10.3541 0.0365254 -5.95302e-22)
(10.2088 0.0612131 9.40095e-23)
(10.2077 0.0498965 0)
(10.1941 0.0439211 8.91885e-22)
(10.1761 0.0610226 1.57229e-20)
(10.2255 0.04397 0)
(10.2399 0.038037 3.36402e-20)
(10.2713 0.0133258 -4.37451e-21)
(10.256 0.0289906 -3.87167e-20)
(10.3098 0.00233289 -2.53147e-21)
(10.3587 0.0308345 9.62343e-20)
(10.3963 0.00753289 -4.4291e-20)
(10.4345 -0.0478558 1.61619e-19)
(10.4675 -0.13848 3.97394e-20)
(10.157 -0.00187202 0)
(10.1639 -0.00511389 0)
(10.1708 -0.011017 -2.44058e-20)
(10.1724 -0.0147095 6.50842e-22)
(10.1684 -0.0231036 -9.49121e-21)
(10.1722 -0.0205373 0)
(10.1739 -0.0264316 -2.42159e-21)
(10.1746 -0.0191445 -3.83586e-21)
(10.1736 -0.0203772 3.5299e-21)
(10.1691 -0.0270729 4.35984e-21)
(10.2608 -0.0136441 1.21089e-22)
(10.0001 0.00434479 3.33599e-20)
(10.0004 0.0131241 8.3619e-20)
(10.0018 0.0206613 -1.22279e-19)
(10.0037 0.0245429 -4.4336e-20)
(10.057 0.00733531 0)
(10.0413 0.0194755 3.40843e-20)
(10.0334 0.03018 -4.11011e-20)
(10.0089 0.0290947 -1.42935e-20)
(10.0168 0.0302367 0)
(10.0272 0.0310925 -8.74831e-20)
(10.0774 0.00695105 -4.22839e-21)
(9.99704 -0.00801478 5.01367e-20)
(9.99954 -0.002286 0)
(9.99985 0.00370549 0)
(9.98793 -0.0473094 -2.07402e-20)
(9.98541 -0.031579 4.39401e-20)
(9.99237 -0.0154107 -5.40329e-20)
(9.98822 -0.0235031 0)
(10.1493 -0.155354 -3.34559e-22)
(10.3836 -0.243827 1.49857e-20)
(10.2114 -0.19427 5.89659e-21)
(10.2897 -0.220207 3.09703e-22)
(10.0817 -0.115732 3.3179e-20)
(10.0606 -0.0989241 5.99383e-20)
(10.1122 -0.160298 0)
(9.98325 -0.060228 4.40569e-20)
(10.0332 -0.103694 -7.78812e-22)
(10.0094 -0.0952314 0)
(9.99233 -0.0781733 -1.65775e-20)
(10.2869 -0.0421416 -7.72737e-23)
(7.90015 -0.026642 4.54196e-22)
(8.69858 0.0680748 -6.96469e-22)
(8.64887 -0.0269014 -1.23565e-21)
(10.2081 0.0708772 0)
(10.1219 0.00704694 1.13192e-22)
(10.3478 0.0396392 -1.17626e-22)
(10.2062 0.0673086 -2.3287e-20)
(10.1901 0.0704495 3.65671e-21)
(10.2487 0.0628195 -7.6453e-21)
(10.2332 0.0613157 2.84161e-20)
(10.2906 0.0373696 -5.48664e-20)
(10.3239 0.0460296 -1.00539e-19)
(10.2712 0.0408277 7.16485e-20)
(10.3827 0.0484288 0)
(10.4462 0.00871371 9.6908e-20)
(10.496 -0.0759739 0)
(10.159 -0.00160828 4.33821e-21)
(10.1713 -0.00411237 4.47952e-20)
(10.1755 -0.0092658 0)
(10.1774 -0.0143861 -3.7825e-22)
(10.1783 -0.0210354 -1.05442e-20)
(10.1699 -0.0293795 0)
(10.1746 -0.0225972 0)
(10.1776 -0.0295614 -3.5477e-22)
(10.1794 -0.0213226 1.02182e-20)
(10.1701 -0.0342116 1.12789e-21)
(10.2637 -0.0191793 -1.08271e-21)
(10.1563 0.000496667 -5.27833e-21)
(10.1516 0.0016014 0)
(9.99937 0.0130904 1.34618e-20)
(9.99925 0.0213918 0)
(10.0029 0.0287685 4.65763e-20)
(10.0068 0.0324782 1.43341e-20)
(10.0576 0.0203675 0)
(10.0441 0.0315039 5.71829e-20)
(10.0345 0.0368946 3.7749e-21)
(10.0144 0.0367235 0)
(10.0243 0.038024 0)
(10.0758 0.021909 -4.32162e-22)
(10.0983 0.00594239 -4.05457e-21)
(10.1177 0.00349195 0)
(10.1334 0.000155623 4.69494e-20)
(10.1467 0.00504592 -4.64744e-20)
(9.99927 0.000644145 0)
(9.99572 -0.00261075 0)
(9.99966 0.002 0)
(9.99823 0.011542 0)
(9.97159 -0.051451 -2.15783e-20)
(9.98002 -0.0395174 5.48444e-20)
(9.98184 -0.0249437 0)
(9.98895 -0.00926156 5.34771e-20)
(10.1641 -0.213959 2.08545e-20)
(10.3307 -0.287345 2.31524e-20)
(10.2387 -0.251976 -2.11097e-20)
(10.0513 -0.123406 2.83567e-21)
(10.0774 -0.139379 -6.30538e-22)
(10.0969 -0.191825 1.04845e-20)
(10.1188 -0.22994 -3.68957e-20)
(9.96073 -0.0655659 0)
(9.97672 -0.0760188 -2.64623e-21)
(10.0186 -0.118595 0)
(9.99121 -0.0998267 0)
(10.3062 -0.0435402 0)
(8.60749 0.0737837 -1.71784e-22)
(7.85606 -0.0309114 -2.61114e-22)
(8.71542 -0.0394408 -1.01427e-20)
(10.3332 0.0514101 0)
(10.1662 -0.00310399 -4.25771e-21)
(10.2187 0.0957197 -3.98741e-21)
(10.2414 0.0727667 -1.40722e-20)
(10.3203 0.0856281 0)
(10.2789 0.0802248 0)
(10.3615 0.0806199 -3.9008e-20)
(10.4432 0.064344 4.53758e-21)
(10.5129 -0.00720353 2.47416e-20)
(10.1693 0.0008725 -5.35347e-20)
(10.1803 -0.00707999 0)
(10.1829 -0.0128293 1.44878e-20)
(10.1842 -0.0208394 3.79279e-22)
(10.1847 -0.0230744 1.82922e-21)
(10.1726 -0.036732 -1.16243e-21)
(10.1786 -0.0255224 1.53655e-21)
(10.1826 -0.0324538 0)
(10.2663 -0.0251156 3.02501e-22)
(10.172 -0.0416181 -7.42129e-22)
(10.1567 0.0133459 2.24287e-20)
(10.1668 0.00522846 8.75941e-21)
(10.1611 0.00984544 -2.85393e-21)
(9.99798 0.0212393 1.63998e-20)
(9.99973 0.0292921 -3.18892e-20)
(10.005 0.0372142 -1.61033e-20)
(10.0118 0.0416953 1.3655e-20)
(10.0586 0.0335478 0)
(10.0451 0.0409548 2.20721e-20)
(10.0334 0.0450172 -3.57109e-21)
(10.0219 0.0456581 1.12453e-21)
(10.0746 0.0364049 -1.72041e-20)
(10.0962 0.0270776 1.46511e-20)
(10.0917 0.0378032 -7.58366e-21)
(10.1582 0.0227924 1.36471e-20)
(10.1155 0.0254658 -1.12942e-23)
(10.1474 0.0238575 -1.15528e-21)
(10.1332 0.0238438 4.13392e-21)
(9.99665 0.00852617 0)
(9.99262 0.00363026 0)
(9.99564 0.0196137 6.10253e-20)
(9.98541 0.0024413 -1.07189e-19)
(9.96077 -0.0417168 -5.67951e-20)
(9.97242 -0.0311255 2.54975e-20)
(9.98089 -0.0125235 1.70427e-20)
(9.94677 -0.0509333 0)
(10.1844 -0.276266 0)
(10.2717 -0.324646 1.49804e-20)
(10.0366 -0.155601 -2.35457e-20)
(10.0557 -0.210082 3.16329e-20)
(10.0613 -0.168767 3.08008e-20)
(10.0653 -0.248088 -1.58203e-20)
(10.1285 -0.293563 6.25721e-21)
(9.96894 -0.096268 -4.44759e-20)
(9.94791 -0.0813502 5.29373e-20)
(9.99174 -0.129621 -3.86155e-20)
(10.3892 -0.0543853 2.69746e-21)
(8.51382 0.103516 8.96761e-21)
(7.78548 -0.0326884 -4.76229e-20)
(8.72384 -0.0980755 -5.91526e-21)
(10.3602 0.0609028 1.69515e-20)
(10.2567 0.0168248 -1.84456e-20)
(10.2521 0.108579 4.21082e-20)
(10.263 0.0819343 -2.31764e-20)
(10.3417 0.118073 1.84284e-19)
(10.4263 0.118305 3.11738e-19)
(10.5174 0.0634389 -2.35542e-19)
(10.1814 -0.00175851 0)
(10.1886 -0.0095731 -3.03802e-20)
(10.1911 -0.0191001 -1.09305e-22)
(10.1918 -0.0239156 -1.18857e-20)
(10.1893 -0.0342064 1.19137e-21)
(10.1782 -0.0446547 3.88467e-22)
(10.1845 -0.0294105 5.87316e-22)
(10.2331 -0.0325441 -2.68241e-22)
(10.1693 -0.0499111 0)
(10.1671 0.0145991 0)
(10.1816 0.00471379 0)
(9.99305 0.0283344 1.01854e-19)
(9.99684 0.029793 -1.67971e-20)
(10.001 0.0385727 4.97955e-20)
(10.0089 0.0477 0)
(10.0193 0.0526346 -4.34771e-20)
(10.059 0.0454455 -6.45507e-21)
(10.045 0.0510229 -1.45266e-21)
(10.0316 0.05468 1.48181e-20)
(10.0744 0.0484592 1.09763e-20)
(10.0909 0.0553785 1.71213e-20)
(10.1065 0.0473652 -6.03985e-21)
(10.1683 0.0239683 5.97023e-21)
(10.1638 0.0307909 1.45113e-20)
(10.1218 0.044301 1.20975e-21)
(10.1537 0.0350611 -2.50655e-21)
(10.1395 0.0399712 -1.32368e-20)
(9.99258 0.0164984 5.80922e-20)
(9.98735 0.0117357 7.48861e-20)
(9.9891 0.0248697 -2.20975e-19)
(9.97704 0.000861637 -1.78155e-20)
(9.93091 -0.0667398 1.64501e-20)
(9.95033 -0.0236216 -2.77349e-19)
(9.96442 -0.0122714 8.90087e-20)
(9.9341 -0.0260294 0)
(9.98672 0.0317044 4.48732e-20)
(10.2074 -0.353166 -3.08959e-21)
(9.99982 -0.170996 0)
(10.0114 -0.202569 6.75926e-20)
(10.0204 -0.249353 -3.92424e-20)
(10.0698 -0.303699 0)
(10.1382 -0.371548 -4.52966e-21)
(9.94628 -0.162165 -9.4491e-20)
(9.95311 -0.129226 3.23216e-20)
(9.92724 -0.119673 -1.34334e-19)
(10.4167 -0.0956023 7.44048e-21)
(8.32329 0.223341 3.28166e-21)
(7.78366 -0.0421462 2.98604e-19)
(8.31895 -0.228055 -1.70317e-19)
(10.3275 0.149804 -1.86585e-21)
(10.2874 0.143104 -1.60594e-19)
(10.3539 0.148169 8.16843e-20)
(10.3952 0.167542 -1.84519e-19)
(10.5062 0.136405 -7.77164e-21)
(10.1936 -0.00418342 1.59915e-20)
(10.1984 -0.0150078 -3.41954e-23)
(10.2006 -0.0227285 1.69788e-20)
(10.1986 -0.0345122 -1.12852e-21)
(10.185 -0.0540187 -7.48793e-22)
(10.1927 -0.0332996 1.86574e-21)
(10.2111 -0.0519599 1.56335e-22)
(10.1762 -0.0604556 2.01903e-20)
(10.1818 0.0133108 0)
(10.1974 0.00374652 -1.82501e-20)
(9.99125 0.0370801 -3.71478e-20)
(9.9965 0.0391258 -3.32723e-20)
(10.0037 0.0512443 0)
(10.0162 0.061416 -2.77397e-20)
(10.0295 0.0631226 1.58383e-20)
(10.0593 0.0565505 6.20931e-21)
(10.0439 0.063539 0)
(10.0758 0.0615363 -3.09976e-21)
(10.0945 0.0631435 -1.72568e-21)
(10.1133 0.0627187 4.39082e-21)
(10.1812 0.0243729 -1.04345e-20)
(10.1751 0.0349689 0)
(10.1314 0.0589071 -5.37383e-22)
(10.1642 0.0447227 -1.05415e-21)
(10.1492 0.0525818 -7.25612e-21)
(9.97911 0.0114804 -3.24533e-20)
(9.98209 0.0238844 0)