/*--------------------------------*- C++ -*----------------------------------*\
  =========                 |
  \\      /  F ield         | OpenFOAM: The Open Source CFD Toolbox
   \\    /   O peration     | Website:  https://openfoam.org
    \\  /    A nd           | Version:  8
     \\/     M anipulation  |
\*---------------------------------------------------------------------------*/
FoamFile
{
    version     2.0;
    format      ascii;
    class       volScalarField;
    location    "17000";
    object      epsilon;
}
// * * * * * * * * * * * * * * * * * * * * * * * * * * * * * * * * * * * * * //

dimensions      [0 2 -3 0 0 0 0];

internalField   nonuniform List<scalar> 
4109
(
0.117468
0.131144
0.120867
0.129885
0.135541
0.131509
0.136725
0.120775
0.145299
0.145122
0.143158
0.147259
0.120016
0.1347
0.139663
0.150927
0.151603
0.150014
0.151986
0.14115
0.121785
0.130575
0.131762
0.158831
0.160146
0.165315
0.120033
0.133791
0.118549
0.160476
0.149185
0.143122
0.132609
0.131279
0.137936
0.163076
0.164099
0.176558
0.13713
0.119749
0.13445
0.137078
0.122418
0.166563
0.154522
0.55236
0.250703
0.148882
0.143816
0.132456
0.138995
0.170777
0.178451
0.192212
0.150515
0.137726
0.117444
0.135028
0.139378
0.147606
0.144067
0.676753
0.177315
0.163067
0.157181
0.214506
0.552356
0.151029
0.143466
0.143799
0.207831
0.184805
0.236317
0.227419
0.224585
0.155864
0.155575
0.143987
0.134868
0.144296
0.140624
0.14355
0.149293
0.15209
0.182479
0.249385
0.590817
0.80046
0.810421
0.188968
0.184677
0.169517
0.163121
0.157874
0.189037
0.422795
0.151273
0.144028
0.237085
0.220717
0.209839
0.242332
0.248356
0.245916
0.251896
0.16572
0.161253
0.155433
0.141135
0.154475
0.207955
0.147207
0.151786
0.154743
0.161337
0.819487
0.30287
0.401536
0.56659
0.895525
0.847006
0.251392
0.206332
0.194386
0.17885
0.172038
0.165672
0.157374
0.42965
0.162603
0.15482
0.241512
0.227104
0.260361
0.251883
0.27434
0.256568
0.172096
0.169847
0.16968
0.155077
0.160974
0.211041
0.152184
0.157548
0.16278
0.166805
0.798259
0.474363
0.916131
0.599105
0.925792
0.284592
0.214462
0.20367
0.186773
0.17915
0.172491
0.166187
0.159653
0.415384
0.14945
0.235695
0.221824
0.269644
0.248224
0.279166
0.283649
0.300085
0.182715
0.178196
0.176968
0.163937
0.169643
0.22669
0.159222
0.165603
0.16892
0.176769
0.556326
0.972198
0.579924
1.00925
0.984625
0.313291
0.197387
0.207055
0.188715
0.172229
0.180788
0.170541
0.473861
0.155963
0.219138
0.230588
0.263616
0.24429
0.278158
0.297222
0.296313
0.338056
0.190364
0.188173
0.189463
0.177756
0.171335
0.228512
0.165789
0.171663
0.177974
0.18381
0.602769
1.05369
1.0789
0.66626
1.09663
0.310804
0.198463
0.210152
0.184847
0.178416
0.496602
0.168718
0.221466
0.234392
0.257909
0.247681
0.273649
0.29623
0.311801
0.335234
0.375038
0.20244
0.196962
0.196612
0.189102
0.178955
0.241364
0.179825
0.17246
0.211964
0.185977
0.194915
0.591045
1.1513
0.698348
1.1932
1.19332
0.329039
0.200871
0.208844
0.190326
0.54731
0.171992
0.224059
0.234168
0.26209
0.25034
0.277486
0.289834
0.315064
0.338442
0.362229
0.422392
0.213115
0.205305
0.202633
0.222027
0.181136
0.245353
0.184168
0.225184
0.203814
0.196864
1.24155
0.615523
1.29074
0.76686
1.32873
0.338592
3.64985
0.202894
0.215118
0.577126
0.1789
0.223586
0.237632
0.26306
0.249422
0.279759
0.293522
0.308307
0.33749
0.364643
0.402126
0.412958
0.47906
0.210094
0.219836
0.203514
0.234336
0.236736
0.18685
0.25521
0.199698
0.216297
0.207085
0.639369
1.36605
1.41531
0.77029
1.4449
0.353678
4.40738
3.87582
4.60697
3.18424
3.9592
2.78974
0.751804
0.187756
0.231893
0.23845
0.254165
0.252566
0.267561
0.280591
0.294009
0.311392
0.423991
0.327688
0.361238
0.397176
0.478459
0.541667
0.510046
0.617858
0.231727
0.225024
0.247546
0.251647
0.227122
0.199408
0.271788
0.207346
0.219421
0.699108
1.52041
1.50327
0.357057
9.80429
7.17486
4.72242
3.39321
4.36372
5.47821
0.724371
0.718617
0.810411
3.02079
2.61985
2.79068
2.54537
2.91514
1.38713
0.219226
0.305988
0.287329
0.273939
0.464694
0.284908
0.295613
0.311873
0.330418
0.42252
0.349641
0.387942
0.533201
0.479672
0.589861
0.576224
0.721148
0.806613
0.248664
0.251309
0.265023
0.264859
0.241316
0.231316
0.209936
0.269351
0.223009
0.789573
1.8116
10.1273
7.33936
3.60962
4.35717
5.52844
0.787731
0.840137
0.920336
0.843768
0.898342
2.13266
2.32175
2.24651
2.52334
2.99091
2.06874
1.18202
0.318471
0.328541
0.292149
0.454859
0.47188
0.310683
0.308342
0.329142
0.351503
0.414618
0.373177
0.542322
0.509188
0.595643
0.647278
0.729696
0.766512
0.276543
0.265319
0.232793
0.293498
0.281783
0.254491
0.245423
0.319437
0.236784
0.224545
0.33063
0.867954
9.84249
11.2001
7.49129
3.58597
4.45296
5.70717
0.830641
1.00247
1.18956
0.939052
1.02763
1.82948
1.47207
0.933202
1.00112
1.9927
2.18588
2.5446
2.95255
2.48316
2.13109
0.605215
0.345412
0.325284
0.44396
0.473825
0.325193
0.328341
0.349737
0.374208
0.400022
0.553597
0.513289
0.605108
0.660802
0.698565
0.758244
0.302253
0.319378
0.295074
0.248684
0.249057
0.270971
0.286962
0.259836
0.334763
0.307203
1.72592
2.49486
0.241296
0.235145
10.2517
7.29755
7.04484
11.4057
7.76151
3.63366
4.54875
5.91913
0.912761
0.805852
1.07055
1.20277
1.13502
1.4044
1.66362
1.0369
1.12286
1.90799
2.14635
2.52699
3.06518
3.27092
3.08747
3.87739
0.641542
0.4098
0.34828
0.429296
0.462463
0.350677
0.346672
0.370388
0.400717
0.498965
0.540404
0.586574
0.63925
0.693383
0.739234
0.773232
0.337381
0.335561
0.262453
0.261986
0.276742
0.293221
0.312759
0.358075
0.327079
0.26437
0.361015
0.45847
10.664
7.53975
6.47381
4.31497
4.3917
11.5843
7.60072
3.71551
4.14697
4.95762
1.00671
0.876719
0.838714
1.61549
1.25986
1.35025
1.15896
1.24828
1.86929
2.11717
2.63669
3.13222
0.944707
3.87783
3.92223
4.4772
0.854045
0.455403
0.386789
0.429776
0.462374
0.371144
0.373322
0.398424
0.498412
0.539005
0.584337
0.635693
0.680297
0.713928
0.770654
0.78289
0.376176
0.37787
0.283053
0.282784
0.298944
0.315767
0.331772
0.385257
0.349436
0.332945
0.283582
0.302712
10.4477
3.29171
6.16611
5.39711
4.35535
11.7404
7.70914
3.51002
4.33029
5.22201
6.51452
1.11569
0.862337
0.976294
0.867314
1.29764
1.56127
1.41971
1.87386
2.27455
2.71537
2.99761
0.994379
4.63648
4.81295
5.5903
0.963839
0.532627
0.421881
0.46009
0.42606
0.396681
0.401697
0.49467
0.535264
0.627015
0.578132
0.667738
0.709719
0.711793
0.759965
0.823952
0.421508
0.407905
0.417834
0.304297
0.303464
0.33032
0.34941
0.372163
0.364652
0.306072
0.349504
10.9353
7.30173
2.47821
2.7169
4.9653
4.35675
3.59392
8.10778
11.6782
3.65402
4.28726
5.04612
6.20935
1.23862
0.892837
1.06792
0.919245
0.979826
1.46353
1.57339
1.37164
1.94505
2.32959
2.63831
3.13335
1.47396
5.55474
5.89891
6.51467
1.20705
0.610469
0.444689
0.463033
0.429008
0.42959
0.502864
0.534682
0.617392
0.580799
0.681159
0.711793
0.74913
0.798987
0.857111
0.474619
0.456775
0.45167
0.400132
0.330298
0.332456
0.351184
0.365319
0.381387
0.330777
0.412416
11.7556
8.623
6.4432
5.50839
1.92308
2.16862
2.59469
4.1624
3.56008
3.08902
1.56117
8.09184
11.4655
11.6747
3.6375
4.28798
5.73851
5.04662
1.19567
0.943884
1.04419
0.973717
1.51542
1.70893
1.33248
3.13816
2.00076
2.24162
2.7031
1.59801
6.75801
7.27376
8.1339
0.473426
1.4472
0.631111
0.466626
0.466589
0.553997
0.531776
0.63635
0.64375
0.598481
0.691274
0.752919
0.811265
0.537123
0.500035
0.485586
0.428653
0.414886
0.351333
0.347284
0.371955
0.394283
0.355385
0.44064
0.617021
0.702066
8.36457
6.67936
5.12869
4.42389
1.77569
2.19127
2.62916
3.42764
2.94203
1.4646
1.24731
1.07337
0.86072
0.799973
10.8309
7.80641
10.8555
8.13343
3.16462
3.67723
4.21667
5.60405
1.17295
0.996241
1.0563
1.72703
1.52246
1.33607
1.26962
2.69359
2.68788
1.97713
2.33248
1.95472
9.22561
8.37634
9.37213
0.66579
1.55714
0.501347
0.557586
0.639124
0.583225
0.68667
0.732798
0.786202
0.541475
0.520549
0.46288
0.440208
0.418149
0.380345
0.375293
0.39912
0.513476
0.384194
0.741298
0.619381
0.680215
6.409
5.41963
4.19619
3.58392
1.79217
2.24733
2.47653
2.82512
1.57428
1.23732
1.30377
0.760503
1.04561
0.825783
0.900504
8.01285
6.67113
6.2525
5.15083
3.00251
3.52707
4.60312
2.63039
1.13366
1.0573
1.64541
1.40684
1.532
1.36024
1.22197
2.36244
2.40651
2.00183
1.80412
11.306
10.5279
11.365
1.07693
1.74691
0.552612
0.325133
0.635609
0.7005
0.759602
0.561334
0.498989
0.479265
0.452833
0.426529
0.403018
0.396361
0.462751
0.40186
0.691125
0.616146
5.04643
5.20355
4.42532
3.43665
2.91191
1.92208
2.12035
2.36741
1.64355
1.45871
1.28052
0.768993
0.819099
1.128
0.891278
0.984568
5.79421
5.17641
5.13596
4.29851
2.32756
3.11933
3.40962
2.69069
4.32648
1.1215
1.72947
1.56774
1.47289
1.30098
1.19121
1.80687
1.99252
2.03128
1.8499
15.1855
13.6382
15.6493
3.07299
0.617815
0.901251
0.681398
0.74325
0.54147
0.513413
0.483969
0.459919
0.433654
0.429523
0.471764
0.437827
0.676729
0.587682
4.25038
4.32604
3.54113
2.79965
2.41798
1.82953
2.01411
1.58802
1.39072
1.23524
0.73914
0.801274
1.10345
0.887542
0.980629
4.27265
4.13339
3.34532
1.89333
2.0972
2.38375
2.6044
3.55148
1.50034
1.37258
1.25155
1.64509
1.58003
1.79791
2.64483
20.8831
27.3969
9.45232
0.677883
1.11691
0.739185
0.560257
0.525762
0.4952
0.462849
0.458289
0.506354
0.641492
0.605448
3.51507
3.45936
2.81686
2.32353
2.05179
1.73467
1.51063
1.32712
1.17599
0.701314
0.770843
1.04884
0.849662
0.941949
3.40615
3.40176
2.78919
1.95536
2.1278
2.30828
1.81823
2.82758
1.41158
1.30882
1.50971
1.54038
1.67697
4.70949
46.1609
45.4993
21.3382
0.754521
2.34269
0.566036
0.536535
0.494039
0.502083
0.618593
0.663219
0.617523
2.83005
2.81309
2.33797
1.98757
1.76636
1.53933
1.35298
1.20186
0.722681
0.795328
1.07356
0.873576
0.967578
2.78428
2.77103
2.32925
1.85494
1.98324
1.68678
2.347
1.35724
1.43021
1.45601
1.52722
1314.56
10.0969
77.9291
81.0477
51.3542
1482.11
0.57955
0.541244
0.556469
0.553665
0.848836
0.669739
0.63024
2.30199
2.32658
1.99986
1.72339
1.50583
1.33252
1.18733
0.734069
0.800822
1.07025
0.880699
0.966507
2.21336
2.23581
1.98269
1.6831
1.53066
1.95586
2.00959
1105.66
1207.62
23.4078
139.869
140.026
1582.02
1368.77
1951.53
0.594757
0.541555
0.613939
0.610646
1.41849
0.685712
0.625129
2.01128
2.00478
1.7267
1.50891
1.33495
1.1959
0.749651
0.819722
1.08029
0.982876
0.896164
1.97308
1.75619
1.5274
1.74006
1.81119
1.77997
765.286
976.067
1147.94
53.458
1532.83
1304.25
1833.54
1961.76
0.621454
0.617015
0.683097
3.05424
0.69939
0.634822
1.67086
1.68281
1.48697
1.32162
1.19071
0.750479
0.832169
1.08565
0.991897
0.909468
1.76057
1.57274
1.623
1.65276
1.63803
1.61587
713.72
611.992
896.917
1138.66
1897.37
1679.26
1524.15
1292.5
1911.2
1981.03
0.66036
0.681195
0.756279
0.681862
0.700274
0.74003
1.54804
1.37306
1.2523
1.13419
0.810669
0.822033
1.06372
0.964322
0.918441
1.57055
1.5248
1.52905
1.50798
1.48163
557.968
507.639
864.047
1195.11
2191.04
1964.9
1473.58
1725.41
1572.46
1349.27
2039.06
2022.53
0.695951
0.723842
0.739427
0.761953
0.822636
1.45043
1.33284
1.23495
1.13748
0.853105
0.878213
1.06159
0.990505
0.932847
1.42033
1.38876
1.34338
2455.93
445.472
441.066
884.159
1369.63
2212.78
2138.09
1260.16
1496.06
1817.17
1713.67
1528.01
2268.99
2098.58
0.726048
0.752579
0.787702
0.820091
1.3213
1.27177
1.20442
1.13311
0.866012
0.909155
1.06606
1.00829
0.953813
2922.69
2425.76
366.54
407.069
990.136
1881.75
2276.99
2426.28
1155.75
1260.38
1550
1968.53
2040.59
2051.45
2678.12
2236.9
3281.85
3048.14
2400.47
314.239
408.403
1333.63
4454.45
2421.11
2930.2
989.024
1163.29
1290.29
1654.58
2223.51
2895.96
4638.06
3463.18
2480.16
3394.93
3675.98
3102.13
2415.99
292.61
487.501
3078.67
2703.25
3777.1
876.836
999.835
1193.13
1365.55
1844.77
2686.5
6776.13
5315.16
3453.18
3907.33
4096.36
3120.66
2526.91
321.681
958.882
3284.41
5364.41
596.844
869.522
1048.48
1261.81
1514.59
2207.97
3717.8
12568.2
2795.77
3916
4585.1
4517.57
3182.82
2828.77
573.121
4693.89
129.286
536.997
868.444
1148.83
1397.36
1807.59
3042.44
7543.36
3063.21
3311
4523.36
5459.55
4926.56
3412.93
3637.12
10114.5
83.7188
121.439
493.332
873.571
1332.42
1665.86
2486.57
6174.1
2418.2
3583.27
4063.13
5417.21
6598.6
5399.61
4132.08
6823.15
91.1744
88.1428
117.574
462.982
887.865
1679.22
2289.43
4977.77
1335.56
2821.04
4207.4
5299.51
6782.13
8039.43
6297.27
7097.01
97.2213
99.1879
95.7616
118.783
447.032
922.889
2459.64
4556.18
1075.04
1555.2
3309.16
4970.8
7618.76
8911.93
9722.79
9537.37
97.6942
105.687
110.74
107.941
128.805
449.773
1032.7
5230.3
931.083
1168.05
1777.25
3983.93
5943.47
13014
12202.6
11296.5
92.358
106.141
117.89
127.701
127.759
160.319
520.465
1298.76
947.324
1045.52
1275.06
2046.7
4978.78
7506.13
28326.6
10826.3
85.3094
100.281
118.328
135.868
154.167
163.412
249.579
1060.29
1075.11
1058.21
1172.29
1422.31
2424.83
6670.89
10984.5
78207.1
128.447
89.7417
111.807
136.296
164.023
200.823
246.349
662.638
1322.7
1177.58
1182.91
1334.95
1654.71
3036.24
12537.3
14122.8
577.34
121.151
97.4214
128.797
164.456
213.957
307.817
600.101
2509.23
1513
1295.38
1344.63
1575.85
2076.09
4243.28
65619.5
901.618
523.285
117.719
109.704
155.395
214.42
328.768
763.865
2907.35
2989.38
1681.37
1456.08
1585.48
1989.35
3005.55
8008.76
1000.66
888.296
481.814
119.341
129.7
202.384
329.37
817.121
2632.19
3323.74
3700.39
1848.6
1706.98
2000.77
2869.96
6045.33
1174.2
1015.58
885.509
452.011
129.954
165.667
310.212
817.218
3162.04
3013.46
3837.64
4947.61
2038.59
2152.03
2889.13
5717.28
1268.8
1185.44
1069.44
890.674
436.182
162.007
249.036
767.056
3264.31
3428.86
3458.12
4524.85
7431.59
2348.99
3115.63
5793.87
1486.13
1271.47
1220.41
1176
905.861
438.941
251.59
601.83
3229.04
3710.21
3700.28
4000.72
5541.69
12823
3462.39
6261.83
1705.8
1513.68
1305.3
1295.6
1367.8
943.887
509.534
662.104
2903.06
3604.1
4291.01
4070.03
4734.23
7219.93
25690.2
8596.47
2081.6
1891.08
1763.59
1573.74
1385.73
1439.89
1727.53
1057.49
1048.04
2436.57
3024.38
4007.66
5023.71
4578.17
5879.76
10096.5
65667.1
1696.93
2083.02
1987.31
1868.48
1684.7
1541.91
1722.44
2538.8
1341.22
2175.36
2406.4
3076.51
4416.67
6031.33
5406.27
8046.14
13146.9
1848.84
1532.27
1655.69
2103.82
2130.41
2033.05
1882.53
1847.69
2376.57
5421.32
2184.94
2379.95
3094.5
4823.86
7409.94
7322.36
14246.6
1912.59
767.24
1437.54
1435.17
1656.16
2149.82
2380.05
2303.19
2257.86
2553.14
4759.98
851.666
1214.15
2240.41
2393.08
3160.74
5311.83
9194.69
9403.58
2070.65
600.961
1323.27
1380.82
1716.75
2234.15
2818.3
2787.38
3117.19
5150.39
678.494
1084.32
2377.6
2500.34
3395
6243.1
11438.5
2343.99
480.549
1260.91
1379.12
1878.52
2385.36
3654.39
3857.08
6354.22
563.592
1004.05
2651.79
2796.95
4114.57
9527.14
2826.65
395.904
1254.49
1449.56
2243.03
2651.47
5632.04
7835.22
489.657
972.611
3217.31
3592.32
7031.95
3658.36
339.255
1321.38
1653.61
3195.03
13421.8
450.618
999.556
4587.26
6729.19
5225.89
314.831
1521.4
2238.24
7538.58
448.627
1121.92
9843.95
343.445
2101.46
5136.81
527.332
1509.35
610.765
4999.88
1009.05
3464.66
0.906038
0.866229
0.890947
0.890854
0.920082
0.916291
0.929833
0.929236
0.947149
0.833827
0.854739
0.862941
0.886701
0.893354
0.91659
0.926056
1.00139
1.02604
1.04899
1.08603
1.11282
0.946263
0.958973
0.945284
0.946326
0.954559
0.949069
0.973685
0.965995
0.992035
1.15617
1.17655
0.806143
0.828091
0.839587
0.861499
0.873011
0.892836
0.909465
0.92928
0.945682
0.964019
0.983324
1.0032
1.03448
1.05772
1.10919
1.13573
1.22568
1.24026
0.976862
0.991787
1.0114
1.02757
1.05182
1.07386
1.11442
0.972263
0.976755
0.97466
0.973641
0.992954
0.981218
1.02188
1.00876
1.04181
1.11407
1.14393
1.31092
1.33664
1.22355
1.21769
1.29972
0.78652
0.8059
0.822419
0.841333
0.858956
0.877599
0.897748
0.915328
0.943167
0.963838
0.989153
1.00872
1.07821
1.09632
1.15248
1.16671
1.24437
1.26804
1.34991
1.38643
1.48019
1.49428
1.62772
0.999362
1.00867
1.02781
1.04397
1.06909
0.99795
0.999804
1.00857
1.00126
1.03385
1.01939
1.09376
1.06965
1.05299
1.07847
1.13793
1.14192
1.22514
1.251
1.57274
1.36615
1.48803
1.31687
1.36282
0.775561
0.793398
0.813502
0.832532
0.853529
0.871569
0.894091
0.914453
0.935805
0.960973
0.991492
1.03321
1.16086
1.10697
1.22833
1.25957
1.34627
1.36506
1.45059
1.67579
1.72286
1.74164
2.01099
2.04332
1.94721
2.09139
2.0933
2.81356
1.02165
1.03131
1.04778
1.06375
1.14623
1.118
1.02625
1.02336
1.04387
1.03342
1.09658
1.07437
1.05995
1.19813
1.16828
1.08896
1.12834
1.1595
3.64597
3.07156
5.67882
1.23218
1.23539
1.32403
1.35543
1.61121
1.642
2.30853
1.93781
1.55323
1.61998
0.781372
0.795367
0.820574
0.836544
0.863057
0.879706
0.909056
0.929057
0.991666
0.968584
1.04774
1.07512
1.17059
1.18716
1.36416
1.36054
1.54472
1.55835
1.73279
1.76369
1.94577
22.5936
21.1859
12.4903
2.00902
2.23243
2.40757
2.67624
2.95197
3.10156
3.09126
11.615
4.93058
1049.77
1328.33
1243.77
1827.59
1541.23
1656.06
1768.21
1836.93
1.04703
1.04918
1.07232
1.0864
1.14232
1.11815
1.05712
1.05061
1.10025
1.08145
1.07019
1.252
1.21984
1.18996
1.16376
1.10699
1.15421
1.25085
1.18754
1.24201
895.076
629.119
109.699
57.4476
25.0172
2.46004
4.12899
5.43268
14.8945
1.36733
1.37293
1.38299
1.37303
1.59661
1.63028
1.77331
1.70737
2.28856
961.266
1258.36
1472.87
1399.41
1619.8
1764.69
1798.48
1857.49
1809.36
1760.61
0.872258
0.838125
0.90275
0.891074
0.949087
0.941369
0.999711
0.995689
1.05291
1.0509
1.12053
1.11934
1.23847
1.26916
1.31893
1.33585
1.16951
1.45592
1.26985
1.32026
2.80996
2.80614
3.38471
3.81119
3.72416
58.3871
94.1861
300.529
182.535
56.3498
39.1314
6.34452
8.39521
12.145
11.4455
36.1085
16.7639
14.8193
390.13
930.613
614.548
675.536
956.065
1183.43
1309.93
1303.3
1608.57
1596.74
1606.17
1519.24
1824.11
1883.81
1917.95
1741.7
1891.14
1811.85
1.07565
1.07597
1.097
1.11294
1.14477
1.12134
1.10973
1.09199
1.0817
1.30377
1.26924
1.23593
1.20897
1.18381
1.1606
1.12804
1.17411
1.18088
1.24297
1.24807
1.31045
1.24009
185.275
492.133
331.562
848.318
525.21
92.2594
198.275
70.587
23.6685
1.3756
17.4405
3.04802
6.29121
4.36738
1.5465
1.48912
1.66838
1.56306
1.70539
1.69325
1.93663
1.79957
3.06275
949.795
1332.38
846.951
1460.92
1650.79
1261.03
1490.22
1772.14
1777.21
1795.27
1616.07
1797.48
5.16952
1.1605
103.703
29.1452
2.42378
1.18748
1.78962
1.13816
1.48462
1.09178
1.32584
1.29405
1.24902
1.40606
1.37215
1.61117
2.2925
1.44788
2.74367
4.13539
4.25701
7.77614
22.2783
8.64237
9.2862
39.2768
42.6519
14.8727
13.5927
19.0637
19.9619
26.672
28.3006
122.072
185.491
344.705
238.063
132.741
83.7169
49.309
54.2039
99.0807
66.7069
72.9826
608.503
480.461
648.912
963.369
854.328
1267.4
1172.31
1578.59
1415.63
1475.67
1678.82
1847.59
1773.76
1672.74
1856.6
1938.34
1945.46
1.1337
1.10419
1.10201
1.12192
1.14425
1.1257
1.11747
1.14619
1.3585
1.32211
1.28275
1.25211
1.22405
1.19715
1.1811
1.15871
1.40807
1.35052
1.40941
1.46357
1.42428
1.45732
1.19854
1.19412
1.20089
1.22566
1.3912
1.29864
1.33859
1.25523
505.849
397.277
234.277
35.5743
172.553
96.0789
1.4759
1.75935
1.67132
44.9402
4.36988
12.5512
7.75438
1.9855
1.90376
2.08566
2.01244
2.40364
2.09992
5.138
465.928
1040.94
1313.56
901.512
645.947
1473.02
1208.09
1518.19
992.183
1796.59
1840.83
1923.33
1805.43
1665.75
222.28
246.284
58.996
11.554
252.709
218.873
30.4827
11.1302
21.3157
6.40703
13.4782
4.24022
9.34107
2.35443
4.41338
10.0706
30.2806
18.3822
37.3184
20.0288
26.5637
65.0641
101.767
111.553
56.9069
53.9319
120.63
137.434
62.5416
70.1203
95.1326
96.2048
126.445
103.577
402.42
215.655
290.828
268.966
210.85
189.628
238.905
141.062
220.556
715.442
527.234
1197.72
937.083
1045.66
1487.63
1333.54
1675.77
1590.7
1779.72
1721
1.43958
1.40581
1.131
1.14783
1.15066
1.1351
1.13312
1.15844
1.17494
1.32593
1.28102
1.2634
1.22853
1.21536
1.18978
1.18098
1.16283
1.3706
1.33306
1.3531
1.37933
1.33166
1.36311
1.19353
1.2024
1.21612
1.26478
1.51659
1.37681
1.40879
1.30943
91.7345
191.394
291.519
1.63458
1.94031
1.90362
2.34482
2.31617
23.681
102.287
7.0734
21.6117
2.57594
2.33293
3.99608
2.97938
8.20178
314.403
604.527
518.119
1137.62
1171.91
1386.89
1802.25
1939.68
1030.48
1658.67
2063.33
2000.8
2022.18
1875.2
223.096
198.719
102.36
249.129
231.571
290.709
234.679
151.637
319.669
395.979
225.18
107.496
175.426
66.788
124.805
50.8111
65.8201
89.1018
64.3467
143.232
110.974
103.02
103.661
113.168
219.901
241.689
259.803
295.873
188.726
181.451
321.588
339.314
206.489
226.57
290.355
283.361
325.064
552.323
456.698
517.262
358.64
458.202
467.862
415.225
503.761
1028.89
827.348
1386.22
1239.6
1595.02
1516.26
1676.97
1611.72
1.48239
1.42109
1.37562
1.34151
1.16679
1.16267
1.16434
1.17397
1.19201
1.29984
1.27313
1.24797
1.22833
1.20848
1.1949
1.18532
1.29692
1.31646
1.27661
1.30357
1.27943
1.30286
1.20875
1.20931
1.23791
1.33081
1.25358
1.21363
1.6808
1.52434
1.5433
1.41746
1.81442
234.376
140.682
2.20791
2.22076
2.54033
2.60536
3.43897
4.09872
2.53417
26.7121
127.293
31.9312
9.78659
6.30205
28.6096
587.964
389.312
1298.79
1036.76
1762.29
1888.57
2168.33
2180.98
2255.24
2141.55
6.54902
33.2146
256.869
280.89
64.4851
236.92
310.739
252.151
417.66
447.124
256.893
338.189
455.196
436.257
454.391
299.514
376.789
278.135
242.529
228.052
388.277
290.892
400.944
332.462
340.484
455.487
502.939
502.831
531.386
448.467
427.692
379.64
594.429
611.934
472.909
491.732
631.898
628.611
820.964
927.413
805.191
768.173
834.055
745.598
806.982
1283.34
1180.88
1453.73
1385.26
1492.93
1430.88
0.890083
1.61236
1.49827
1.4598
1.41379
1.35988
1.32535
1.29072
1.18098
1.18323
1.18245
1.18491
1.21501
1.26199
1.24581
1.22486
1.21286
1.19849
1.23197
1.25327
1.23239
1.25515
1.24468
1.26406
1.21316
1.2709
1.28461
1.43068
1.25593
1.28108
1.92304
1.60457
1.6815
1.45383
2.2655
2.71292
2.82209
461.932
188.064
2.96937
2.37735
9.00193
4.26064
41.7695
34.5062
22.9515
142.849
231.818
81.0938
1261.5
781.641
1932.67
1714.04
2236.98
2287.34
2503.5
2455.5
3.29721
20.3797
254.292
394.89
41.0999
148.946
413.968
329.864
325.712
438.786
344.949
274.509
602.005
411.699
540.988
576.306
579.236
583.891
581.523
505.811
496.504
622.382
596.163
604.293
626.381
752.605
708.468
724.03
730.293
747.963
716.082
856.328
645.236
696.842
875.749
836.801
790.204
804.08
931.343
930.882
1010.34
1012.41
1199.21
1053.78
1070.2
1307.33
1251.49
1303.66
1258.75
0.781668
0.83698
0.893159
1.512
1.46198
1.44294
1.40826
1.39154
1.35813
1.31211
1.25438
1.28782
1.38025
1.40434
1.19923
1.18629
1.17895
1.18039
1.21522
1.19539
1.1911
1.20151
1.21511
1.20599
1.22682
1.2224
1.23844
1.22652
1.26223
1.31096
1.4057
1.45709
1.34495
1.83513
2.31776
1.59788
1.90967
2.59277
3.70638
2.88043
3.90316
7.52747
2.04444
914.494
535.261
37.8647
14.9719
152.306
87.9944
401.752
712.861
301.156
1814.45
1582.09
2285.7
2399.46
2717.42
2723.57
2.41786
12.8097
215.311
451.605
24.6661
97.9099
464.638
483.333
258.642
289.79
473.281
335.328
544.275
478.413
267.33
344.066
668.46
503.145
566.545
538.412
624.41
679.774
678.095
631.883
661.375
720.593
705.031
707.942
857.111
806.98
771.019
755.868
704.849
847.131
869.486
953.149
892.872
901.638
974.524
988.307
956.65
969.331
999.627
1016.49
1189.21
1142.04
1053.77
1180.43
1155.72
0.769965
0.791149
0.822723
0.889973
0.933485
1.44808
1.36857
1.35775
1.33361
1.33293
1.23058
1.2768
1.25673
1.30488
1.33148
1.31987
1.30181
1.32665
1.28939
1.28725
1.24438
1.24589
1.23083
1.19019
1.18801
1.18895
1.19277
1.2231
1.18838
1.19738
1.20447
1.21109
1.20839
1.22414
1.22849
1.26113
1.35547
1.29589
1.42719
1.58052
1.53408
1.68757
2.20499
2.7196
1.90722
2.30348
3.28765
4.93302
15.2635
10.9022
9.39637
21.5774
76.0018
66.1431
1711.32
1161.49
336.086
312.092
801.723
1249.46
765.983
2263.59
2444.24
2798.32
2966.74
1.95623
7.67292
164.064
428.417
14.3292
57.5978
439.875
556.659
313.499
255.495
544.128
424.488
359.284
293.967
242.57
246.842
564.138
543.048
306.54
428.572
351.353
433.53
542.422
627.401
607.83
596.723
558.809
567.554
511.525
708.453
705.114
591.516
515.912
543.256
530.36
719.259
766.846
974.33
1007.59
1004.33
985.557
990.996
1011.58
1029.72
987.105
994.424
1.31711
0.77895
0.786076
0.806116
0.833584
0.868096
0.933648
0.978503
0.80163
0.799783
0.834626
0.82617
0.8743
0.857877
1.20022
1.21133
1.15694
1.16987
1.10948
1.12637
1.05916
1.08149
0.918348
0.89682
0.964475
0.938585
1.01109
1.03371
0.984241
1.29945
1.28969
1.27294
1.28009
1.24858
1.23759
1.26398
1.25785
1.25578
1.24176
1.26506
1.21756
1.22071
1.17621
1.18212
1.22968
1.19292
1.21
1.19141
1.20775
1.21014
1.20631
1.213
1.21314
1.22397
1.234
1.23269
1.23219
1.22914
1.32636
1.25596
1.48499
1.3749
1.57291
1.83103
1.7294
2.0425
2.68227
3.92189
2.41945
3.06175
4.50895
13.6378
162.805
101.33
194.227
43.1688
178.3
459.15
570.862
2289.37
1852.46
1140.98
1866.72
1215.68
2889.54
2946.26
1.54422
4.90715
413.435
102.408
196.38
8.70107
34.8369
563.467
596.238
367.436
280.788
588.925
457.246
638.72
238.574
235.142
227.401
422.466
366.641
215.422
255.268
283.484
236.713
375.729
438.186
399.161
355.193
375.475
329.605
388.117
315.71
400.758
254.046
337.321
237.617
321.486
552.463
990.603
950.09
683.195
938.672
895.137
1.23718
0.973863
1.01875
0.812911
0.821297
0.846403
0.879393
0.918142
0.830964
0.8331
0.857832
0.856341
0.891398
0.885007
1.13584
1.14851
1.09661
1.11239
1.05468
1.07222
1.01244
1.03311
0.931168
0.91842
0.97075
0.992882
0.954542
1.24802
1.23878
1.22897
1.24424
1.23658
1.20137
1.20682
1.19661
1.21977
1.16453
1.17085
1.12433
1.13402
1.23017
1.2316
1.23101
1.24241
1.2352
1.24221
1.2441
1.23701
1.24813
1.26803
1.25049
1.25267
1.2484
1.37919
1.30137
1.31085
1.63853
1.45586
1.7433
2.20483
2.0818
2.5923
3.54974
7.71784
3.1684
4.97255
9.87277
74.39
584.669
738.519
516.859
757.789
200.944
637.626
1122.64
1436.83
1943.8
3091.84
2335.11
1.38891
2.19658
4.32503
234.505
483.93
58.2136
143.036
14.7449
543.166
662.12
344.338
251.189
633.9
390.959
665.147
623.15
511.575
507.993
197.484
214.84
283.725
247.457
179.392
191.876
201.325
179.887
237.745
264.177
251.503
223.478
214.557
199.236
170.683
160.199
142.665
124.384
166.105
118.668
708.752
194.843
506.913
2929.37
1.02215
1.09875
0.926506
0.985678
0.848515
0.863856
0.894251
0.863328
0.866539
0.884471
0.885513
0.91071
0.909737
1.08792
1.10111
1.05082
1.06884
1.01253
1.03248
0.977002
0.999745
0.945342
0.967328
0.937089
1.20963
1.20818
1.20323
1.19712
1.15771
1.17084
1.16293
1.19195
1.1228
1.13472
1.08864
1.10001
1.23245
1.21766
1.25807
1.24787
1.32388
1.29695
1.33984
1.3297
1.2801
1.29533
1.34581
1.30488
1.27879
1.37902
1.29784
1.29819
1.5251
1.51665
1.83798
1.81913
2.61473
2.4704
3.9566
2.97924
5.64743
18.1762
4.41789
8.10653
52.4209
254.205
503.954
1306.47
1435.37
1173.77
1235.86
1628.69
2026.66
2283.58
29.3521
1.18146
1.22541
2.01361
2.71455
8.90293
376.944
91.6395
184.82
625.238
436.793
230.093
299.223
634.217
654.237
319.844
410.425
664.043
607.523
527.015
419.941
171.519
194.332
187.618
178.241
153.368
157.356
152.092
152.952
156.306
166.766
118.745
122.036
95.7544
96.1708
85.7821
82.972
112.638
84.265
1.00082
1.06112
0.890952
0.912799
0.95608
0.897133
0.913196
0.913448
0.917122
0.935312
0.934255
1.05517
1.07047
1.01955
1.04268
0.99011
1.01112
0.961231
0.983133
0.957367
1.20663
1.18318
1.18141
1.18427
1.12978
1.14634
1.17927
1.14623
1.09631
1.11461
1.06782
1.08324
1.2648
1.24072
1.24019
1.30519
1.2796
1.41898
1.40562
1.39417
1.42635
1.54879
1.50161
1.50305
1.46346
1.43886
1.37236
1.33747
1.51322
1.45101
1.56257
2.04313
1.79593
3.3621
3.48355
2.42922
3.27503
5.40741
5.82025
23.8374
73.2122
19.5269
201.906
414.308
740.878
1401.06
1942.71
2010.57
2375.31
8029.05
136.898
1.09971
17.5528
45.843
1.21556
1.31097
1.37791
2.24267
3.11784
7.99073
372.909
258.454
642.219
584.522
200.735
254.099
699.546
679.931
276.608
367.96
641.856
559.954
427.471
146.727
170.524
125.898
129.962
129.496
119.652
103.22
106.031
86.0011
89.7218
80.5145
81.7638
79.48
82.23
1.05208
0.934989
0.979998
1.01432
1.02523
0.932286
0.953112
0.943848
0.951854
0.957912
0.959451
1.03392
1.05669
1.00776
1.0302
0.981637
1.00507
0.980578
1.06155
1.17895
1.1779
1.18509
1.16166
1.13988
1.11595
1.18849
1.11464
1.09515
1.09132
1.25949
1.22223
1.28787
1.32977
1.33369
1.41523
1.39698
1.55817
1.59814
1.65573
1.63097
1.85196
1.84288
1.78085
1.5946
1.5548
1.75534
1.71575
1.89082
1.87991
2.6396
2.55192
6.37593
6.56272
6.081
4.60334
35.5824
26.2225
262.411
163.457
591.872
757.341
1115.19
1966.76
272.142
80.9173
134.688
1.25344
1.17086
12.4488
38.6027
1.34261
1.61615
2.18853
2.65533
7.94002
551.239
429.63
715.201
694.78
176.603
232.063
728.941
653.248
532.394
417.859
274.585
125.223
145.493
97.8983
107.16
104.578
86.4618
90.1921
84.3614
84.9522
85.9959
87.6827
1.1167
1.17983
0.983617
0.997928
1.06967
1.13891
0.976467
0.990637
0.977256
0.990039
0.989282
0.99575
1.05683
1.03962
1.01758
1.03431
1.01199
1.25362
1.09514
1.0789
1.07859
1.16915
1.17906
1.14501
1.23419
1.187
1.15817
1.12806
1.34376
1.33096
1.42558
1.39403
1.5279
1.5053
1.72273
1.67164
1.92187
2.02205
2.52979
2.34128
2.21325
1.99803
1.91856
2.0943
2.0879
2.41889
2.49115
2.46121
5.29817
4.1985
38.6562
12.9894
17.6627
10.2682
284.108
155.253
747.578
518.007
1059.11
941.382
417.527
191.982
282.821
63.0529
124.06
1.43144
1.27595
11.9093
32.5179
2.60506
1.52776
5.38557
676.871
581.304
757.625
774.661
237.913
173.912
144.465
736.576
544.121
440.046
309.729
254.383
102.058
116.777
87.1449
91.0243
85.7307
85.5715
90.9554
89.4909
1.21125
1.32889
1.02594
1.08826
1.13805
1.25358
1.02495
1.05602
1.03571
1.01042
1.04918
1.04787
1.08205
1.05598
1.07432
1.33046
1.28694
1.14466
1.12966
1.14667
1.13445
1.19886
1.26809
1.18074
1.20511
1.17392
1.52223
1.51502
1.4494
1.66847
1.62361
1.86854
1.99115
1.94498
2.34792
2.28829
4.17376
3.21536
3.31867
3.00411
2.82001
2.70754
3.82495
3.85895
3.74737
3.38416
6.43072
23.272
16.3917
200.238
89.9291
94.445
585.458
408.598
963.443
783.335
342.175
538.435
645.34
163.8
314.26
48.8077
114.65
1.4486
1.83506
7.57471
31.1449
2.0341
4.60664
794.958
768.155
795.349
775.625
851.12
149.877
174.926
115.954
660.549
503.224
333.85
280.184
171.007
87.3743
97.3329
85.3374
83.4517
91.4514
88.5997
1.36275
1.56773
1.10216
1.17273
1.25091
1.43316
1.11123
1.08665
1.14799
1.14387
1.14105
1.13664
1.12926
1.42677
1.32352
1.19923
1.2104
1.18036
1.23733
1.3108
1.25833
1.31327
1.25243
1.85181
1.76108
1.71859
1.57855
2.28984
2.59723
2.3998
2.61194
2.96365
2.79265
3.89142
3.32873
4.95935
5.4651
5.38019
3.63251
8.20558
8.53624
6.60934
74.7432
37.9315
201.401
183.031
507.846
399.296
799.221
707.541
365.545
547.734
677.058
165.435
323.576
45.0578
113.842
2.52698
1.82028
7.94347
5.32502
24.01
672.103
890.125
880.644
890.071
814.818
864.269
702.794
898.86
126.713
97.0558
517.411
327.721