/*--------------------------------*- C++ -*----------------------------------*\
  =========                 |
  \\      /  F ield         | OpenFOAM: The Open Source CFD Toolbox
   \\    /   O peration     | Website:  https://openfoam.org
    \\  /    A nd           | Version:  8
     \\/     M anipulation  |
\*---------------------------------------------------------------------------*/
FoamFile
{
    version     2.0;
    format      ascii;
    class       volScalarField;
    location    "17000";
    object      p;
}
// * * * * * * * * * * * * * * * * * * * * * * * * * * * * * * * * * * * * * //

dimensions      [0 2 -2 0 0 0 0];

internalField   nonuniform List<scalar> 
4109
(
-0.00552582
-0.0177859
-0.00879515
-0.0287623
-0.0299031
-0.0185358
-0.0287148
-0.0146658
-0.039233
-0.0397033
-0.0390242
-0.0429679
-0.00912969
-0.0228968
-0.031784
-0.0463753
-0.0507385
-0.0467479
-0.0451172
-0.0419983
-0.0027193
-0.0324533
-0.0327678
-0.0538009
-0.0546449
-0.0622796
-0.00304259
-0.00826548
-0.00559604
-0.0520844
-0.0456159
-0.0470705
-0.029995
-0.0869038
-0.0618497
-0.0572767
-0.062281
-0.0762985
-0.016544
-0.00504671
-0.00018847
-0.013256
0.000367694
-0.0561612
-0.051867
0.090254
-0.0558672
-0.047143
-0.0550953
-0.0764581
-0.068346
-0.0659201
-0.0717183
-0.0884928
-0.0239833
-0.0109743
-0.0052011
0.0150037
-0.00959607
-0.0210381
-0.0678282
0.0650764
-0.0617076
-0.0562636
-0.052376
-0.0337396
-0.058542
-0.0519971
-0.0577856
-0.0537293
-0.10542
-0.0804861
-0.125728
-0.125613
-0.127193
-0.0299803
-0.0327791
-0.0231684
-0.0123397
-0.02062
-0.011811
-0.0150888
-0.0160255
-0.0261993
0.0156279
-0.206778
0.123731
-0.236298
-0.00807544
-0.0812784
-0.0713084
-0.0615852
-0.0557843
-0.0534134
-0.0541362
0.0316164
-0.0530988
-0.0620735
-0.125482
-0.108886
-0.0979373
-0.139536
-0.137422
-0.145653
-0.151154
-0.0344615
-0.037453
-0.0399375
-0.0230778
-0.0047857
0.0639281
-0.0153904
-0.0156422
-0.0236861
-0.030249
-0.578998
0.112112
0.0118605
-0.00553113
-0.309751
-0.120374
0.261529
-0.0883553
-0.0778326
-0.0696254
-0.0563283
-0.0551207
-0.0465162
-0.0744644
-0.0633477
-0.0570157
-0.119953
-0.111702
-0.148662
-0.133542
-0.178192
-0.16658
-0.0416325
-0.0476017
-0.0504572
-0.0340485
0.00851446
0.0595581
-0.0129811
-0.0243363
-0.027192
-0.0345721
0.087954
0.0819953
-0.215384
-0.100532
-0.137555
0.0954195
-0.0863039
-0.0842284
-0.0757752
-0.060189
-0.0486911
-0.0438106
-0.0396953
-0.0061149
-0.0287042
-0.10904
-0.100061
-0.148137
-0.123461
-0.166356
-0.181521
-0.214809
-0.0520233
-0.058145
-0.0627903
-0.0509473
0.00794783
0.0295373
-0.0199107
-0.0237798
-0.0259458
-0.0428249
0.0191601
-0.158092
0.0161546
-0.069759
-0.0838738
-0.0218766
-0.0804094
-0.0853503
-0.0724179
-0.0459582
-0.0461281
-0.0282035
-0.0139237
-0.0107801
-0.0931226
-0.10053
-0.138647
-0.112034
-0.157502
-0.18537
-0.216398
-0.256867
-0.066351
-0.0725292
-0.075708
-0.0670697
-0.0157636
0.0039478
-0.0101238
-0.0119769
-0.0242151
-0.0568351
-0.0928774
-0.103699
-0.0847585
-0.015501
-0.0944099
-0.0463071
-0.0768957
-0.078287
-0.0945687
-0.0488094
0.0960058
0.0667248
-0.0808446
-0.0860235
-0.127756
-0.0967964
-0.147386
-0.178885
-0.215672
-0.256428
-0.302697
-0.0825021
-0.0866986
-0.0873163
-0.0801292
-0.0085676
0.029379
0.00988471
0.0131891
-0.0990119
-0.0381969
-0.0736393
-0.0639135
-0.0631272
0.0544967
-0.138898
-0.208998
-0.0526323
-0.0851246
-0.0604837
-0.0901681
0.060368
0.0674198
-0.0633904
-0.0656042
-0.111679
-0.0767688
-0.131078
-0.169904
-0.20659
-0.249159
-0.298446
-0.349642
-0.10427
-0.095117
-0.0918673
-0.116359
0.0209363
0.101265
-0.0173438
-0.11326
-0.0906916
-0.0616828
-0.175267
-0.129537
-0.231295
0.0633925
-0.197169
0.0100488
1.07773
-0.056638
-0.0103654
-0.337668
-0.0965739
-0.0537033
-0.0291822
-0.0863367
-0.0444096
-0.108926
-0.153067
-0.196148
-0.237433
-0.285903
-0.333454
-0.370424
-0.38311
-0.113602
-0.116875
-0.108249
-0.134146
-0.130554
0.0197581
0.100827
-0.0554376
-0.107509
-0.0842439
-0.0651181
-0.222392
-0.0284653
-0.0484792
0.402592
0.0500387
1.08362
1.12335
1.13588
1.02828
1.02853
0.970115
-0.661751
-0.249246
-0.148228
-0.112597
0.0145964
-0.0465192
-0.0388402
-0.0806501
-0.132076
-0.178125
-0.371184
-0.22617
-0.272014
-0.32245
-0.3946
-0.40086
-0.41165
-0.386619
-0.136958
-0.136486
-0.153443
-0.148478
-0.125118
-0.025663
-0.0109665
-0.090996
-0.103958
0.335325
0.118053
1.01251
-0.105104
1.19948
1.16321
1.16929
1.07739
1.19631
1.21828
-0.314904
-0.362469
-0.329531
0.946353
0.921682
0.992729
0.909329
1.01623
0.109334
0.164561
0.16089
0.0233617
-0.0274738
-0.399241
-0.104775
-0.109041
-0.155198
-0.204859
-0.360136
-0.260977
-0.310934
-0.437806
-0.419136
-0.424816
-0.437719
-0.427419
-0.438056
-0.166548
-0.159477
-0.174348
-0.165303
-0.142074
-0.122754
-0.0967306
-0.153517
-0.10416
0.778463
0.616091
1.24443
1.23169
1.15582
1.27666
1.30527
-0.247498
-0.192615
-0.19509
-0.48459
-0.319601
0.82685
0.811856
0.842259
0.941765
1.08249
-0.089407
0.445955
0.435813
0.032268
-0.0789219
-0.394402
-0.420995
-0.114619
-0.130987
-0.173795
-0.234382
-0.354391
-0.302838
-0.473113
-0.451158
-0.484225
-0.474719
-0.518207
-0.597505
-0.197972
-0.185776
-0.120217
-0.203184
-0.178697
-0.158331
-0.138523
-0.223515
-0.108754
-0.077837
-0.104866
-0.263169
1.2046
1.32555
1.32264
1.23107
1.37071
1.40676
-0.797885
-0.0186615
0.187754
-0.0815185
-0.0975492
0.629367
0.41006
-0.31376
-0.168852
0.716095
0.842485
0.987382
1.16473
-0.155553
0.0239525
0.132115
-0.0274001
-0.101705
-0.401076
-0.445917
-0.128891
-0.144116
-0.191755
-0.269492
-0.35452
-0.528417
-0.491487
-0.552979
-0.553584
-0.655197
-0.867485
-0.232024
-0.244855
-0.216092
-0.123123
-0.134706
-0.174529
-0.194045
-0.150597
-0.24536
-0.215864
-0.521995
-0.250633
-0.23967
-0.0476067
1.24973
1.2332
1.16505
1.42861
1.42527
1.32433
1.48542
1.53888
-0.632267
-1.19527
0.0451377
0.200091
0.0719284
0.402527
0.584039
-0.0993031
0.0131162
0.711474
0.870321
1.07776
1.27787
-0.257194
-0.225655
-0.22939
-0.0576259
-0.0470177
-0.101429
-0.414408
-0.47717
-0.136596
-0.160727
-0.225732
-0.323345
-0.53995
-0.597695
-0.64384
-0.667027
-0.869542
-1.17158
-1.45096
-0.269974
-0.282553
-0.145871
-0.140797
-0.165306
-0.185395
-0.20959
-0.281934
-0.242636
-0.202828
-0.07883
0.366298
1.32519
1.30187
1.23936
1.06962
1.16143
1.54944
1.55033
1.43795
1.59932
1.63052
-0.394069
-0.997999
-1.71259
0.550431
0.253364
0.353018
0.129581
0.184646
0.73094
0.967142
1.22421
1.41105
0.302492
-0.18573
-0.252237
-0.261363
-0.101223
-0.0213712
-0.0521118
-0.394124
-0.477965
-0.198576
-0.135269
-0.285772
-0.568055
-0.663922
-0.756189
-0.829893
-1.09984
-1.38822
-1.76775
-2.05771
-0.315459
-0.320913
-0.120913
-0.147974
-0.166132
-0.187304
-0.223692
-0.318091
-0.28345
-0.244973
-0.0487618
0.0238382
1.4314
0.967522
1.34119
1.27436
1.14691
1.67599
1.6803
1.56764
1.72199
1.73572
1.70104
-0.110597
-2.17651
-0.695822
-1.36906
0.336941
0.547745
0.369434
0.824675
1.15457
1.38461
1.56177
0.0280813
-0.113826
-0.173969
-0.141647
-0.0751073
0.0938124
0.0347162
-0.481418
-0.37158
-0.264359
-0.182542
-0.601672
-0.736797
-1.00267
-0.872923
-1.3075
-1.96685
-1.62626
-2.26186
-2.49949
-0.35971
-0.356653
-0.355852
-0.134789
-0.155889
-0.195403
-0.24696
-0.321137
-0.282397
-0.0872943
-0.0734161
1.55463
1.43127
0.822693
0.955403
1.33488
1.21892
1.04385
1.7943
1.78935
1.70842
1.84536
1.8397
1.81613
0.159019
-2.72852
-0.336368
-1.78261
-0.950609
0.495045
0.658269
0.394118
1.02755
1.33415
1.55745
1.72954
0.0198866
-0.0203992
-0.0983326
-0.102043
0.0295575
0.178559
-0.00201719
-0.511218
-0.358689
-0.268672
-0.680306
-0.836037
-1.16723
-1.00314
-1.5554
-1.96325
-2.32558
-2.73458
-3.09647
-0.401059
-0.393668
-0.396183
-0.364893
-0.142151
-0.163261
-0.218453
-0.281109
-0.323245
-0.0768851
-0.0422341
1.6772
1.5824
1.51659
1.41409
0.634287
0.814911
0.925987
1.29196
1.15665
1.00518
0.421805
1.88403
1.87176
1.79038
1.85933
1.95434
1.91828
1.95414
0.0570286
-2.27474
-0.508267
-1.31441
0.656793
0.862524
0.429125
1.91238
1.22007
1.5308
1.75935
0.0454166
-0.0419793
-0.0820634
-0.0521878
-0.163658
0.0327959
0.0557815
-0.533537
-0.345547
-0.896027
-0.758162
-1.31818
-1.66336
-1.155
-2.21121
-2.84215
-3.3625
-0.416395
-0.449961
-0.444837
-0.41561
-0.373253
-0.156922
-0.182176
-0.254411
-0.324456
-0.0772033
-0.0297865
-0.396738
-0.339738
1.69465
1.61854
1.50232
1.3791
0.643006
0.810967
0.944957
1.23251
1.08841
0.455986
0.20775
0.00812939
-0.160135
-0.274566
1.91013
1.94359
1.87819
1.79988
2.09515
2.00613
2.03619
1.99951
-0.0357265
-1.73913
-0.792556
1.04789
0.783657
0.641929
0.382267
2.20264
1.98314
1.44614
1.77986
0.030938
-0.110784
0.0174284
0.498071
-0.351238
-0.0492154
-0.724723
-0.493505
-1.56041
-1.15071
-1.92887
-2.78835
-3.50358
-0.464398
-0.4907
-0.474225
-0.433858
-0.379009
-0.177194
-0.220609
-0.303637
-0.0575494
-0.0714221
-0.334171
-0.440577
-0.371249
1.71354
1.60558
1.47739
1.32183
0.661288
0.833985
1.00227
1.15634
0.49669
0.254394
0.333701
-0.331044
0.0549727
-0.244606
-0.114132
1.89869
1.96436
1.81756
2.03564
2.24994
2.12653
2.08062
2.3812
-0.2473
-1.13996
1.28086
1.15694
1.02088
0.999479
0.319801
2.07102
2.34313
1.78058
0.219007
0.14801
0.901285
0.566036
-0.251214
-0.391194
-0.877033
-0.564993
-1.67074
-2.56246
-3.49793
-0.519275
-0.532745
-0.505575
-0.451624
-0.368978
-0.228976
-0.280453
-0.0937436
-0.106923
-0.41119
-0.52034
1.83082
1.71824
1.58594
1.42801
1.23784
0.691326
0.884124
1.05966
0.534759
0.378478
0.189008
-0.4163
-0.367474
0.0382838
-0.278263
-0.137615
1.92366
2.0036
1.9443
2.12134
2.55365
2.39877
2.23057
2.53043
1.9463
-0.483658
1.71645
1.59034
1.43844
0.940114
0.23431
2.36175
2.20595
2.52563
0.197992
0.635965
2.16064
0.458161
0.476481
-1.23388
-0.768613
-2.15796
-3.33662
-0.587191
-0.58181
-0.544815
-0.462406
-0.29814
-0.36257
-0.15565
-0.149203
-0.522087
-0.627761
1.83593
1.71173
1.5498
1.33437
1.13063
0.738706
0.935017
0.573591
0.381789
0.187554
-0.503736
-0.441393
-0.000104901
-0.334418
-0.183293
2.08319
2.02814
2.28245
2.93828
2.7158
2.73354
2.55295
2.00236
1.88053
1.55899
0.983409
2.28342
2.72039
3.03262
0.120904
0.849277
-0.129721
-0.198259
-1.67423
-0.963167
-2.98715
-0.655808
-0.645896
-0.590488
-0.295617
-0.454184
-0.346492
-0.648293
-0.720504
1.69369
1.84697
1.45792
1.20357
0.998077
0.783091
0.602909
0.394814
0.170873
-0.626477
-0.554909
-0.0558633
-0.432417
-0.262439
2.13717
2.23336
2.52587
3.24819
2.98169
2.83285
3.49453
2.04409
2.12892
1.73238
2.66851
3.11667
3.5415
-0.208331
0.0811207
0.121231
-0.195397
-2.39561
-1.35348
-0.746242
-0.717289
-0.487121
-0.60338
-0.621167
-0.760669
-0.842932
1.6298
1.82847
1.3212
1.07334
0.836886
0.638105
0.401537
0.140866
-0.753867
-0.685188
-0.120468
-0.550736
-0.357452
2.2526
2.42251
2.80865
3.51039
3.17259
3.923
2.02896
2.44876
3.12976
3.71694
4.23605
-32.1652
-0.239872
0.284352
0.336207
-0.404405
-31.4251
-0.85263
-0.764876
-0.888973
-1.00602
-0.709778
-0.912223
-0.993586
1.75089
1.51176
1.19621
0.909874
0.689007
0.412004
0.10569
-0.924309
-0.85369
-0.198614
-0.699772
-0.475125
2.65357
2.34197
3.28945
3.97026
4.59809
2.52016
2.07508
-34.2449
-32.1655
-0.14829
0.149291
0.193286
-29.3943
-31.2996
-31.6621
-0.989266
-1.04013
-1.17269
-1.19778
-0.825252
-1.11778
-1.19061
1.71602
1.41321
1.03267
0.778848
0.429539
0.0512548
-1.17508
-1.09414
-0.311701
-0.638732
-0.906113
3.0914
3.90843
4.73258
2.9378
2.5167
2.07857
-35.2263
-34.3142
-32.1663
-0.504263
-28.8035
-31.0401
-33.8588
-30.8735
-1.32382
-1.49531
-1.54163
-1.34446
-1.43012
-1.4657
1.64084
1.24275
0.940856
0.469645
-0.00794168
-1.56723
-1.43736
-0.449298
-0.843348
-1.17683
3.75758
4.71411
2.85089
3.50922
2.52526
2.0685
-36.0619
-35.3731
-34.3481
-32.1504
-34.9214
-27.3777
-28.562
-30.7873
-33.9948
-30.6619
-1.76602
-1.98102
-2.32076
-1.92801
-1.76941
-1.93933
1.51311
1.01684
0.453755
-0.103152
-2.15661
-1.8666
-0.628528
-1.10154
-1.51632
4.54676
3.21318
4.19955
2.76707
2.20175
-36.0718
-35.4979
-34.3646
-32.1301
-33.7257
-35.1617
-27.5213
-27.3792
-28.4336
-30.5601
-33.9087
-30.6474
-2.3052
-2.89604
-2.43841
-2.56385
-2.70005
1.60687
1.00459
0.376774
-0.258779
-2.53306
-2.25148
-0.862835
-1.409
-1.88483
3.72354
3.13527
2.45468
-38.6438
-35.9464
-35.5845
-34.3745
-32.107
-33.7944
-35.3244
-25.41
-27.5597
-27.3485
-28.3415
-30.353
-33.7835
-30.5673
-3.21671
-3.36491
-3.41166
-3.36285
1.7452
1.00906
0.259023
-0.473057
-3.13252
-2.76615
-1.15626
-1.77329
-2.3154
-41.4665
-38.752
-35.8297
-35.6461
-34.3861
-32.0844
-33.93
-35.4837
-24.9791
-25.429
-27.5895
-27.3005
-28.2694
-30.1678
-33.6396
-30.3993
-46.1329
-41.6604
-38.8253
-35.7424
-35.6914
-34.4
-32.0613
-34.0441
-35.6557
-21.0044
-25.1595
-25.4442
-27.5929
-27.2737
-28.1977
-30.0488
-33.4915
-30.1976
-48.7741
-45.9731
-41.7705
-38.8864
-35.6837
-35.7268
-34.4163
-34.13
-35.8447
-25.3351
-20.8067
-25.2921
-25.4435
-27.5774
-27.2631
-28.121
-33.372
-93.9563
-48.3154
-45.9444
-41.8488
-38.9164
-35.6454
-35.7496
-34.1801
-36.0189
-20.0851
-26.1162
-20.8155
-25.3565
-25.4419
-27.5526
-27.2689
-33.3186
-30.0632
-103.252
-47.1814
-46.0009
-41.9082
-38.9224
-35.6259
-34.1809
-21.6782
-20.2046
-26.9408
-20.8447
-25.3811
-25.4425
-27.5275
-27.2759
-44.1824
-30.336
-112.211
-45.9411
-46.0818
-41.9394
-38.9119
-34.1502
-20.939
-21.7449
-20.2739
-27.727
-20.8795
-25.3831
-25.4492
-27.518
27.0548
-51.6488
-29.8757
-120.306
-44.6924
-46.154
-41.947
-38.8879
-20.8914
-20.8965
-21.8232
-20.3452
-28.4557
-20.9242
-25.3767
-25.4572
34.6287
30.0199
-59.9743
-29.2071
-127.445
-43.4313
-46.1584
-41.9309
-20.4724
-20.8357
-20.8562
-21.8783
-20.431
-29.1619
-20.953
-25.3858
47.1953
35.6487
32.974
-67.6791
-28.4337
-134.189
-42.2747
-46.0923
-20.4791
-20.4036
-20.7811
-20.8222
-21.9166
-20.5277
-29.8451
-20.9426
49.952
48.0488
36.7067
35.1233
-74.6802
-27.5361
-141.255
-41.4934
-20.906
-20.4078
-20.3304
-20.7281
-20.7965
-21.9447
-20.6223
-30.2708
49.9375
50.4973
48.9445
37.5812
36.9129
-81.5548
-26.7452
-146.581
-20.9541
-20.8479
-20.3329
-20.2625
-20.678
-20.7773
-21.9665
-20.691
47.5935
50.5351
51.1032
49.6661
38.4393
38.6045
-89.2104
-26.6205
-21.6924
-20.9087
-20.792
-20.264
-20.2025
-20.6329
-20.7617
-21.9811
34.8833
48.33
51.1316
51.6526
50.2469
39.3854
40.3345
-95.6873
-20.0389
-21.7634
-20.8674
-20.7372
-20.2031
-20.1507
-20.5978
-20.7502
27.4436
36.03
49.1988
51.6751
52.1329
50.7301
40.3945
41.5803
-25.3326
-20.1236
-21.8425
-20.8328
-20.6853
-20.1505
-20.1123
-20.5807
-43.9311
30.5168
37.2393
49.9133
52.1543
52.557
51.1063
41.0455
-21.0009
-26.1683
-20.1865
-21.8991
-20.807
-20.6381
-20.1113
-20.0945
-30.2269
-51.6476
33.6157
38.2322
50.4929
52.5769
52.9106
51.3248
-24.8935
-20.7939
-27.0049
-20.254
-21.9394
-20.7878
-20.6011
-20.0931
-94.1785
-30.7824
-60.1469
35.9196
39.1568
50.9678
52.9261
53.1111
-25.3726
-25.0739
-20.7953
-27.7905
-20.3345
-21.9701
-20.7722
-20.5832
-49.1843
-103.869
-30.4401
-67.9852
37.8882
40.1127
51.3432
53.1231
-27.5306
-25.397
-25.2014
-20.8222
-28.5171
-20.4241
-21.9943
-20.7607
-45.9009
-48.6726
-112.912
-29.8235
-75.1004
39.79
41.0418
51.5579
-27.2702
-27.5556
-25.4124
-25.2601
-20.8573
-29.2199
-20.5137
-22.0101
-41.758
-45.7626
-47.489
-121.051
-29.0772
-82.1057
41.6232
41.5999
-30.6082
-34.3266
-27.2772
-27.5848
-25.4131
-25.2812
-20.9011
-29.8898
-20.576
-38.425
-41.9282
-45.7577
-46.2403
-128.246
-28.2004
-89.777
43.0604
-28.2528
-30.5408
-34.3567
-27.2457
-27.59
-25.413
-25.2776
-20.9283
-30.3029
-33.9799
-38.5478
-42.0245
-45.8292
-44.9825
-135.027
-27.4067
-96.2415
-34.7223
-31.0482
-27.9343
-30.6115
-34.2868
-27.1971
-27.5759
-25.4152
-25.2699
-20.9175
-33.8782
-38.6293
-42.0995
-45.9219
-43.7195
-142.136
-27.3256
-35.0812
-35.898
-31.8391
-30.8486
-27.816
-30.5668
-34.2044
-27.1703
-27.5524
-25.422
-25.277
-35.3346
-34.1602
-33.997
-38.6943
-42.1559
-46.0003
-42.5469
-147.487
-35.2599
-35.946
-31.7929
-30.5767
-27.7153
-30.435
-34.0953
-27.1635
-27.529
-25.431
-35.4193
-34.2359
-34.1241
-38.7277
-42.1907
-46.0071
-41.8028
-35.4071
-35.839
-31.7587
-30.3359
-27.6405
-30.2468
-33.9775
-27.1677
-27.5193
-35.5369
-34.2437
-34.2208
-38.7391
-42.2019
-45.94
-35.5642
-35.723
-31.7304
-30.1227
-27.5916
-30.0387
-33.886
-27.1735
-35.6271
-34.2511
-34.2776
-38.7299
-42.1878
-35.738
-35.6342
-31.7028
-29.9251
-27.541
-33.8511
-35.6915
-34.258
-34.285
-38.7073
-35.9002
-35.5761
-31.6737
-29.7548
-27.4752
-35.7386
-34.269
-34.2559
-35.5393
-31.6401
-29.644
-35.7756
-34.2845
-35.5209
-31.6169
-35.8004
-34.3012
-3.24483
-3.62947
-3.6814
-4.1949
-4.17257
-4.74152
-3.17424
-3.64062
-2.71783
-3.9606
-4.02745
-4.58035
-4.6694
-5.3327
-5.3341
-6.00108
-8.06069
-8.82768
-8.88903
-9.80386
-9.62543
-5.98107
-6.65786
-4.70992
-5.32852
-3.55872
-4.09082
-2.60516
-3.0162
-2.13394
-10.5552
-10.1888
-4.15173
-4.33847
-4.93435
-5.04159
-5.65366
-5.86942
-6.63312
-6.65888
-7.42368
-7.36495
-8.07558
-8.82493
-9.60924
-9.5987
-10.4382
-10.6187
-11.6201
-11.5138
-6.60183
-7.31696
-7.28408
-8.07352
-8.00494
-8.79324
-9.28032
-5.21347
-5.84414
-3.91153
-4.47316
-2.83429
-3.26508
-1.94092
-2.27174
-1.46029
-8.66241
-9.06316
-12.4825
-13.4031
-10.1231
-10.9124
-11.8778
-4.2358
-4.46982
-5.09259
-5.33342
-6.03159
-6.14107
-6.88325
-7.18081
-8.00867
-8.09134
-8.88658
-9.65824
-10.4989
-10.4548
-11.2934
-11.2477
-12.2146
-12.3811
-13.0828
-13.4068
-14.5052
-14.014
-14.8875
-5.68541
-6.46935
-6.57642
-7.25401
-7.44667
-4.26674
-4.88728
-3.01026
-3.50481
-2.01442
-2.36061
-0.702597
-1.18428
-1.44836
-7.11603
-7.88704
-7.63488
-8.78433
-10.1509
-14.4628
-12.522
-13.9126
-11.3819
-12.5492
-4.14835
-4.49677
-5.16131
-5.45522
-6.17892
-6.47786
-7.20814
-7.41076
-8.22289
-8.49573
-9.17762
-9.66032
-11.2026
-10.8254
-12.2267
-12.2409
-13.308
-13.233
-13.8692
-14.6553
-15.1185
-15.1779
-16.0918
-15.8049
-15.6455
-16.2068
-16.3347
-17.53
-4.90226
-5.72433
-5.32649
-6.04008
0.142424
-0.339716
-3.34891
-4.08114
-2.02708
-2.50678
-0.515409
-1.08487
-1.35517
1.03107
0.585579
-5.66291
-6.45284
-6.30597
-18.6668
-17.5985
-19.3005
-7.65761
-8.96581
-10.2594
-11.4374
-13.7213
-14.8544
-16.5248
-15.865
-12.6901
-13.7763
-3.91245
-4.33704
-5.05598
-5.45704
-6.21567
-6.55368
-7.31443
-7.63679
-8.73356
-8.40611
-9.61458
-9.81093
-10.712
-11.2712
-12.8854
-12.3652
-13.8299
-13.9464
-14.63
-15.2061
-15.0749
-20.6276
-21.0386
-19.7844
-16.1793
-15.9488
-16.937
-16.8964
-17.2515
-18.0573
-17.6463
-19.7769
-19.0334
-29.4192
-30.1396
-29.7991
-32.4055
-31.2342
-30.7694
-30.9992
-30.6825
-3.67447
-4.25851
-3.71477
-4.40039
0.511024
-0.0592106
-2.11489
-2.68927
-0.252741
-0.940016
-1.26553
1.92336
1.54967
1.57447
1.06431
-3.94195
-4.82677
-7.6597
-4.48505
-6.00724
-29.1134
-27.5405
-23.5004
-22.7414
-21.3626
-16.9775
-18.3705
-19.1381
-20.5895
-7.8754
-8.97794
-8.82959
-10.3624
-11.6937
-12.9979
-14.2991
-15.1219
-16.4944
-29.8198
-30.7836
-32.3364
-30.6969
-32.1328
-33.7941
-32.6428
-31.7982
-33.0611
-32.8833
-3.38876
-4.00683
-4.81742
-5.31555
-6.13903
-6.56687
-7.48075
-7.7699
-8.57009
-8.84799
-10.2388
-9.7697
-11.0921
-11.2494
-12.2629
-12.8358
-12.875
-14.2125
-13.8033
-14.9748
-15.682
-15.6298
-16.653
-16.7323
-16.3685
-21.9853
-22.9037
-25.0249
-24.1611
-21.6444
-20.7309
-17.6748
-17.7541
-18.3588
-18.6265
-20.5976
-19.4066
-19.0836
-25.6173
-27.6021
-27.167
-27.7159
-27.097
-29.185
-29.428
-30.0108
-32.0845
-31.1099
-31.549
-31.2677
-31.6556
-31.7663
-32.3079
-31.9987
-31.5431
-31.6644
-2.04422
-2.55296
-1.83828
-2.53673
1.01055
0.318457
0.148357
-0.660194
-0.965398
2.76443
2.45242
2.58169
2.15483
2.24437
1.69562
-1.69857
-2.32359
-3.63985
-3.96902
-5.50067
-6.39482
-2.93362
-24.746
-27.1918
-26.1102
-29.9351
-28.6087
-24.0312
-25.2178
-23.4031
-21.4393
-6.45718
-21.1821
-17.4004
-19.7701
-18.7326
-7.53517
-8.51215
-10.0568
-10.5477
-12.1121
-12.5613
-14.3448
-15.337
-17.0892
-30.0291
-30.9018
-29.8916
-32.8804
-32.5992
-34.1745
-32.3554
-32.2122
-31.4101
-31.9468
-33.1795
-32.8742
-2.72612
-3.37024
-2.13823
-2.19582
-4.32795
-5.03618
-6.00539
-6.48529
-7.49599
-8.029
-9.11433
-9.23238
-10.525
-11.3718
-10.2524
-12.0109
-12.612
-13.5633
-14.0839
-14.8985
-13.5543
-14.092
-15.5851
-15.622
-15.6475
-16.4636
-16.3392
-16.4361
-16.421
-17.1676
-17.2775
-17.9821
-18.3463
-22.5788
-23.5659
-24.6441
-24.0193
-22.2553
-21.5666
-19.3112
-19.6157
-21.397
-20.4226
-20.3349
-25.4594
-25.1062
-25.515
-28.2911
-27.1481
-29.0045
-28.7794
-30.4682
-27.564
-30.0287
-30.2963
-31.7361
-31.3492
-31.0015
-32.2476
-30.3164
-31.4122
-0.440872
-0.246842
-0.65025
0.0312116
1.68606
0.928318
0.737411
0.293444
3.58191
3.3466
3.60344
3.24953
3.45467
2.96554
3.07701
2.41842
4.30712
4.16527
4.89117
4.91394
5.4788
5.33298
1.09203
-0.507541
-1.29096
-1.3315
-5.17734
-3.4354
-1.56188
-0.784471
-28.6126
-28.1901
-26.5779
-22.43
-25.6897
-24.2268
-4.88901
-6.63594
-8.40897
-22.7223
-18.5753
-21.1502
-19.9288
-10.1592
-11.2177
-12.7326
-13.2361
-14.8555
-15.4049
-17.406
-28.9478
-32.6793
-33.3093
-32.1791
-31.2031
-34.2022
-35.2159
-34.3831
-35.1966
-33.025
-33.0101
-33.5881
-34.3273
-33.9421
-1.31311
-1.82459
-4.31585
-4.3702
-3.12962
-3.72968
-5.68974
-6.24694
-8.04838
-8.0941
-9.19142
-9.66655
-11.271
-11.2229
-12.1085
-12.6966
-13.6625
-13.9844
-14.9085
-14.7506
-15.501
-16.1036
-17.0257
-16.681
-17.3041
-16.9669
-17.6801
-17.7156
-17.9428
-17.8735
-18.6605
-19.0003
-19.648
-20.0242
-24.1696
-22.9136
-23.7959
-23.2245
-22.2192
-20.6235
-21.6088
-21.042
-21.4547
-26.3369
-24.9003
-27.4053
-25.884
-27.899
-28.1193
-27.416
-31.0306
-28.8648
-32.9135
-31.0336
5.53772
5.80783
0.941384
1.14666
2.44114
1.69154
1.82442
2.12984
2.42687
4.5079
4.211
4.51542
4.12579
4.39838
3.88254
4.13007
3.45965
5.35286
5.2107
6.02119
6.03209
6.63106
6.4423
2.96731
2.54146
2.47369
0.69117
-3.08372
-1.51726
0.157915
1.40402
-24.7086
-26.728
-27.9183
-3.15987
-5.18843
-7.05309
-9.10134
-10.9636
-22.5747
-24.4056
-18.8496
-21.6783
-12.9852
-14.1972
-16.378
-16.7945
-19.0323
-28.797
-31.0209
-30.5825
-33.7236
-31.2357
-32.8262
-34.6293
-34.6354
-35.3562
-33.4138
-34.4597
-34.6982
-35.1051
-33.9271
-1.11869
-3.1074
-2.28299
-1.92898
-2.37096
-4.07331
-4.97226
-5.35393
-4.07583
-5.21435
-7.91441
-8.15676
-9.57359
-9.04763
-11.9362
-12.1809
-14.3231
-13.2935
-13.273
-14.0645
-14.2803
-15.3042
-15.6129
-16.3189
-16.7361
-17.7508
-18.3078
-18.2104
-17.9852
-18.5705
-18.6868
-18.2533
-19.5212
-19.4331
-19.4542
-19.9153
-21.3392
-24.7085
-24.2774
-23.2648
-22.0779
-21.5032
-22.9177
-22.5904
-22.0541
-25.5423
-25.4141
-27.3682
-26.5035
-27.6506
-27.7717
-27.8897
-27.5876
5.54505
5.92617
6.58788
6.92912
3.64334
3.02116
3.33455
4.38456
4.28743
5.67131
5.39403
5.84864
5.26867
5.54065
4.88575
4.99388
6.489
6.59587
7.33911
7.29467
8.01568
7.68574
6.15919
4.92004
4.24307
3.4199
4.66169
7.65702
-1.36516
0.293742
2.43271
4.10752
-1.20889
-28.5355
-26.3963
-2.94834
-5.23776
-7.41782
-9.74423
-12.8134
-14.9176
-14.4233
-21.3054
-25.9423
-23.5962
-17.7754
-18.3486
-20.954
-31.9579
-29.9291
-35.0131
-33.5528
-35.6167
-35.6586
-36.1345
-35.2607
-35.3755
-34.0503
-2.96252
-2.40548
-2.71756
-3.80297
-3.92627
-3.30252
-4.04301
-5.79595
-6.84211
-8.02768
-6.40426
-8.10632
-8.09442
-8.9546
-12.9776
-12.2171
-13.7266
-13.8929
-16.7814
-15.0207
-14.8985
-14.1752
-16.1559
-17.6034
-17.1344
-18.3589
-18.548
-18.3342
-19.1679
-18.3624
-19.5032
-20.0039
-20.0584
-18.8749
-20.6517
-20.0551
-20.5562
-21.7308
-22.7628
-25.7742
-25.0434
-21.8397
-21.9619
-22.8699
-22.4186
-25.9991
-25.8164
-27.0561
-26.2317
-27.5527
-26.9759
-3.52531
-3.58873
5.33603
5.84434
6.47823
6.94147
7.66248
8.21385
5.93792
5.79367
6.73792
7.81546
8.42564
7.10322
6.82566
7.31704
6.60181
6.98277
8.08791
8.08761
8.91576
8.82678
9.66884
9.11156
9.63964
7.68625
6.27457
6.64091
10.3803
9.56075
1.03338
2.96807
5.68592
7.29136
1.36166
-0.64876
-2.78183
-32.3997
-28.6713
-5.73936
-8.77982
-12.1328
-14.3885
-18.3177
-19.7523
-23.5042
-27.3034
-30.352
-25.0645
-37.5791
-35.0788
-38.4068
-38.6892
-39.0998
-37.9402
-38.9876
-38.1463
-4.27681
-4.01063
-5.15771
-5.2263
-6.07636
-5.42244
-6.2877
-7.71778
-8.60528
-9.70964
-8.44379
-9.70335
-13.714
-11.0139
-12.1954
-13.1308
-14.1191
-14.0939
-15.2815
-17.5632
-16.0621
-17.4389
-15.9002
-18.7133
-18.05
-20.3129
-18.7524
-19.6401
-18.9511
-19.1265
-19.0141
-20.0072
-20.3988
-20.3517
-20.5184
-20.1601
-21.3224
-21.1515
-21.8517
-22.141
-23.3867
-22.3079
-24.3975
-23.4794
-23.6356
-25.2128
-24.9459
-25.5766
-25.0549
-3.97043
-4.14409
-4.96386
-4.97849
4.89015
5.49043
6.0736
6.64152
7.29463
7.96157
9.50711
8.80873
4.26577
4.88304
10.5939
10.2094
8.37224
8.90459
8.89741
8.56602
9.14974
10.081
9.89303
10.8796
10.6261
11.2717
10.4358
12.0975
12.5939
13.4448
12.5828
9.35839
10.3887
6.29398
4.29346
10.6735
9.1051
5.26738
2.74272
-1.21764
3.6274
-4.1375
-6.85363
-37.5268
-33.8209
-11.1545
-15.6528
-22.5004
-24.3486
-33.4968
-38.4276
-32.7568
-39.883
-39.9975
-41.5336
-40.9902
-42.2723
-40.9677
-5.83085
-6.27404
-6.94048
-7.1005
-8.14717
-7.57121
-9.01271
-9.86173
-10.8741
-11.9164
-10.886
-11.9216
-14.8396
-13.882
-13.1854
-14.1667
-17.7694
-14.9703
-15.3126
-16.9459
-16.4445
-18.2064
-17.5135
-17.8095
-17.8354
-19.3118
-18.8095
-19.9209
-20.107
-19.7048
-19.7789
-19.4938
-19.4577
-20.4438
-20.613
-20.6806
-21.0173
-20.4463
-20.6884
-20.2854
-21.8183
-21.3308
-23.6017
-22.4458
-24.7864
-23.5307
-21.8658
-25.0678
-24.567
-4.25725
-4.4883
-5.19113
-5.41292
-6.18068
-6.39097
5.38466
6.069
6.62351
7.36258
10.8175
9.00963
9.97461
8.13241
3.53168
4.12683
4.52405
5.22285
2.71941
3.31006
1.8594
2.42944
12.5973
11.2472
10.8659
11.851
11.1165
11.9133
12.3863
12.061
13.2497
12.4716
12.7778
12.085
11.9002
14.0739
15.0242
15.2646
16.5466
15.9734
13.7486
13.0964
10.0532
8.13679
14.4295
13.1019
8.93253
6.54325
-0.305531
-5.19632
6.48955
2.62389
-8.56697
-13.9727
-45.3209
-42.738
-23.1662
-31.6502
-40.7509
-46.1498
-39.6809
-46.3226
-44.2686
-46.3656
-46.0278
-7.35163
-8.14408
-10.2967
-10.3698
-9.39644
-9.40759
-11.1463
-12.1638
-13.0789
-13.9289
-13.4561
-14.1669
-16.0169
-15.0048
-14.702
-15.2927
-18.0262
-17.8718
-16.9299
-18.3737
-16.9274
-17.4181
-18.6647
-18.9684
-18.2212
-19.4515
-19.4348
-20.6749
-20.2649
-20.2633
-20.1898
-20.1335
-20.7581
-20.7205
-20.549
-20.7323
-20.6257
-20.4035
-21.1897
-20.5759
-21.2682
-23.6345
-21.4561
-21.7797
-25.1549
-21.6885
-7.76122
-4.21458
-4.51045
-5.23256
-5.57766
-6.32753
-6.63714
-7.32827
-4.18902
-4.4761
-3.99135
-4.35352
-3.66312
-4.06706
0.998559
1.49161
0.141748
0.563988
-0.694087
-0.320576
-1.44571
-1.16777
-3.25917
-3.70249
-2.7258
-3.19212
-2.12867
-1.923
-2.605
5.69117
6.54521
7.17699
8.15214
10.0899
11.0173
8.97659
3.60223
4.29563
4.6724
5.43293
2.59031
3.24895
1.52253
2.12703
10.8838
13.5837
14.9974
13.7219
14.221
13.8404
15.3939
14.7646
15.8216
14.9596
13.1394
13.3417
11.8663
16.4356
16.8005
17.1467
18.4917
18.3631
20.0882
20.0897
17.7352
17.2865
14.4118
12.352
18.9318
17.5982
12.6625
9.82004
-10.4941
-1.30334
-8.94211
8.40034
2.91918
-20.4238
-24.7385
-47.7601
-50.1509
-35.4761
-65.831
-55.7544
-54.1333
-46.7728
-8.80707
-9.57547
-11.7084
-11.897
-12.0022
-10.7206
-11.4641
-13.5265
-13.9995
-15.1061
-15.3915
-15.0097
-15.9809
-15.6792
-16.3762
-17.1852
-16.2456
-19.4201
-18.8718
-17.7261
-18.0831
-18.8908
-18.5404
-19.5045
-19.4519
-20.3933
-20.4021
-20.5687
-20.4661
-20.9443
-20.9304
-20.8476
-21.1571
-20.8845
-20.9684
-20.9371
-20.637
-21.0528
-20.6388
-20.4847
-24.7769
-20.7042
-9.10992
-7.58623
-8.39557
-5.12875
-5.53836
-6.25266
-6.64507
-7.31575
-4.90288
-5.30059
-4.61884
-5.06432
-4.20758
-4.68229
0.489447
1.00501
-0.482402
-0.0625904
-1.4392
-1.06306
-2.23662
-2.01507
-3.65994
-4.17287
-3.00686
-2.78992
-3.55181
5.8681
6.8935
7.4515
8.72754
9.54485
3.47546
4.25447
4.5195
5.42375
2.1933
2.91329
0.879295
1.54798
8.93551
11.2156
9.77278
17.2364
16.9882
16.4396
18.2464
17.4555
18.0387
15.9697
14.3262
14.0938
12.2693
20.2391
18.9336
19.0956
21.9472
21.8805
23.9626
24.0664
22.1802
22.3313
19.1451
17.1164
24.1598
22.6567
17.453
13.8753
-13.137
-21.6838
-2.22586
-12.0523
11.0925
3.37604
-28.8264
-30.5547
-40.3035
-87.8676
-80.1546
-10.0526
-10.692
-11.6292
-12.718
-13.4424
-13.2103
-13.2476
-12.6695
-16.0353
-16.6198
-17.202
-17.2175
-16.4504
-17.7427
-17.0541
-17.8954
-18.2174
-18.5576
-18.2499
-18.068
-19.7462
-19.4149
-18.8837
-19.0876
-19.7519
-19.4566
-20.1533
-20.4307
-20.6382
-20.6596
-21.1651
-20.9996
-21.0335
-21.1532
-21.3869
-21.3457
-21.3935
-21.3204
-19.9982
-21.58
-20.818
-30.1337
-9.04748
-9.89873
-7.73483
-8.62935
-5.97603
-6.44542
-7.29746
-5.77366
-6.28853
-5.31465
-5.89617
-4.68307
-5.26963
-0.257855
0.222571
-1.33398
-0.915062
-2.38988
-2.01934
-3.22034
-3.0373
-4.02611
-3.85304
-4.61286
5.76934
7.01026
7.63955
7.18766
3.00178
3.87627
4.05394
5.09662
1.49414
2.27754
0.00862701
0.793119
9.28469
7.83813
11.5987
10.0772
17.4563
17.4203
21.0628
20.3144
19.6511
18.7251
21.3885
21.0685
12.4125
16.8137
15.2354
14.1272
23.373
23.2514
25.8058
25.5257
27.0521
27.9144
26.5239
28.0088
24.0414
22.3438
28.7616
27.5362
23.6717
19.7561
21.5336
-18.7785
-28.5256
13.9886
-6.03622
-17.6505
-32.2181
-28.1791
-13.8481
-10.2192
-11.0416
-11.7351
-12.7223
-13.6016
-15.9018
-14.4747
-15.3587
-17.6909
-17.2426
-18.7454
-18.8115
-17.2593
-18.5741
-19.0899
-19.2036
-19.3584
-18.9388
-19.2456
-19.498
-19.3934
-19.3509
-20.2202
-20.0214
-19.7596
-19.8378
-20.1572
-21.0431
-20.573
-20.7599
-21.0885
-21.104
-21.2533
-21.2468
-21.0517
-21.1677
-21.8488
-21.148
-9.10106
-9.82008
-7.20077
-7.74246
-8.64122
-6.60085
-7.2407
-5.91626
-6.57408
-5.18366
-5.85613
-1.20478
-0.726493
-2.43456
-1.98778
-3.54421
-3.24081
-4.37094
-4.22936
-5.05851
7.1024
5.32589
6.20903
5.82488
2.31046
3.19551
4.16582
3.38042
0.711038
1.52742
-1.00031
-0.215611
9.06477
7.08108
5.74334
11.3875
9.63678
17.9109
20.6843
19.5882
20.4539
24.9443
23.5883
24.7822
22.6668
22.9421
14.9511
12.4474
17.6584
16.3056
19.251
27.6078
27.138
30.855
33.3041
30.3958
31.1671
31.7707
32.4661
33.4395
28.7628
29.7276
29.8668
25.485
27.0553
25.7204
21.2178
-21.4991
-39.508
-36.0761
-15.8454
-10.2842
-14.3958
-14.8914
-11.31
-11.5981
-12.4494
-12.9869
-13.6788
-14.3196
-16.1864
-15.9635
-17.5495
-17.2569
-19.7561
-19.7999
-18.728
-18.967
-20.1953
-20.0096
-19.3675
-19.343
-20.0061
-20.0898
-20.1312
-20.6597
-20.5195
-20.3399
-20.5577
-20.9216
-20.7987
-21.0973
-21.033
-20.9978
-20.9739
-21.0169
-21.0555
-10.2853
-8.01155
-8.60414
-9.36527
-9.66937
-7.30904
-8.02782
-6.50915