/*--------------------------------*- C++ -*----------------------------------*\
  =========                 |
  \\      /  F ield         | OpenFOAM: The Open Source CFD Toolbox
   \\    /   O peration     | Website:  https://openfoam.org
    \\  /    A nd           | Version:  8
     \\/     M anipulation  |
\*---------------------------------------------------------------------------*/
FoamFile
{
    version     2.0;
    format      ascii;
    class       volScalarField;
    location    "0.062";
    object      p;
}
// * * * * * * * * * * * * * * * * * * * * * * * * * * * * * * * * * * * * * //

dimensions      [0 2 -2 0 0 0 0];

internalField   nonuniform List<scalar> 
656
(
4.72392e-07
-0.235415
1.72859
-0.7867
0.189109
1.73123
-1.15106
-1.55284
2.05499
1.70641
1.76606
-0.438537
0.38613
1.74771
2.03449
2.25918
1.63659
1.58731
2.26845
2.39137
1.80211
1.82118
1.7864
1.81791
-0.067828
0.616182
1.77438
2.01724
2.25042
1.84382
1.86662
2.55672
2.39634
2.38636
2.55443
2.69001
2.15655
2.17264
2.13724
1.78224
1.85334
0.28047
0.818513
1.80944
2.00691
2.24336
2.18688
2.19943
2.86035
2.69084
2.55897
2.38209
2.55203
2.68876
2.86084
3.02754
2.16148
2.17586
2.18742
2.12039
2.14581
1.82907
2.00075
2.23603
2.19769
2.20651
3.02636
2.85844
2.69132
3.34497
2.37749
2.54909
2.68638
2.85973
3.02741
2.18273
2.1928
2.19462
2.19414
1.98958
2.22565
2.19343
2.19289
3.61247
3.34067
3.02257
2.85606
3.3455
3.56248
4.81662
2.36919
2.54658
2.68239
2.85999
3.02875
2.09327
2.08873
2.09006
2.09223
2.09412
2.09548
5.39496
5.07758
3.65361
3.32846
3.01722
3.35165
3.52786
4.58589
5.00428
2.11809
2.10185
2.09353
2.08719
2.08107
2.07563
3.46393
5.83362
5.30381
3.68496
3.31179
3.39808
2.13839
2.12605
2.11489
2.10563
2.09744
2.09025
3.53791
3.54919
6.25265
5.51768
3.70236
3.53239
2.22638
2.21173
2.19916
2.18881
2.17972
2.1718
3.18937
3.54077
3.65146
6.69744
5.7732
3.19319
2.32629
2.31377
2.30171
2.29141
2.28252
2.27504
3.12265
3.18755
3.53832
3.76315
7.19327
3.13346
3.07486
2.40777
2.40841
2.40218
2.39088
2.3793
2.36954
3.06625
3.11263
3.18555
3.52847
3.85137
3.07011
2.47141
2.50109
2.49443
2.47755
3.06515
3.05745
3.10335
3.1814
3.51422
3.07079
3.18816
2.31778
2.3057
3.08444
3.06815
3.0592
3.05
3.09342
3.17534
3.15784
3.19262
3.21523
3.0929
3.08364
3.06484
3.05431
3.04298
3.08391
3.13685
3.15949
3.19718
3.21644
3.33972
3.09802
3.09264
3.08252
3.06247
3.05
3.03664
3.12368
3.13685
3.16013
3.20029
3.22868
3.38678
3.10056
3.09838
3.09282
3.08204
3.06059
3.04625
3.11588
3.1232
3.13645
3.15998
3.20214
3.23954
3.09867
3.1008
3.0988
3.0931
3.08183
3.059
3.1115
3.11513
3.12245
3.13571
3.15957
3.20303
3.101
3.09838
3.10097
3.09924
3.09351
3.08169
3.11421
3.11112
3.11436
3.12168
3.1349
3.15918
3.10348
3.10072
3.09828
3.10107
3.09968
3.09388
3.10748
3.11037
3.11452
3.11083
3.11368
3.12091
3.13425
3.10333
3.10043
3.09824
3.10114
3.1001
3.10756
3.11074
3.11466
3.11067
3.11307
3.12029
3.10319
3.10017
3.09823
3.1012
3.10765
3.11108
3.11472
3.11057
3.11251
3.10306
3.09994
3.09822
3.10772
3.11139
3.11475
3.11049
3.10294
3.09972
3.10779
3.11167
3.11477
3.10283
3.10785
3.11192
0.611872
0.921022
2.12092
2.05032
1.83002
1.80103
1.83258
1.36904
1.47457
1.26355
1.80881
1.85003
2.14481
2.14371
2.16544
2.16158
2.10574
2.08038
2.01318
1.95877
1.7448
1.56626
1.91247
1.84331
1.99338
1.9909
1.88166
2.10615
2.10794
2.14102
2.15627
2.16327
2.12636
2.08123
2.09204
2.00125
1.94344
2.13243
2.22598
2.11441
2.36212
2.27294
2.1365
2.07569
4.46958
4.70425
3.32635
2.5499
2.45664
3.17353
3.02231
2.68283
2.64618
2.96517
2.86553
2.80928
2.14186
2.1139
2.12918
2.17203
2.22539
2.21789
2.20873
2.20969
2.26272
2.16366
2.45113
2.39418
2.28201
2.2979
3.96843
3.5352
3.45029
3.98475
3.79616
3.42528
3.28032
3.30999
3.16909
2.62053
2.52746
3.08317
2.97611
2.88838
2.81519
2.74298
2.14566
2.16423
2.19148
2.2499
2.2762
2.34403
2.36884
2.56629
2.41775
2.36463
2.6533
2.48412
2.423
3.66961
3.53955
3.48915
3.52738
3.44774
3.36965
3.22763
3.17438
3.0514
2.96046
2.87879
2.73932
2.70057
2.23582
2.25174
2.27594
2.36662
2.38529
2.43637
2.47438
2.58769
2.53961
2.8086
2.73294
2.59627
2.5406
3.18403
3.31864
3.32912
3.35973
3.27921
3.20679
3.11486
3.03139
2.89171
2.97759
2.9123
2.33691
2.55181
2.3781
2.39072
2.43928
2.45239
2.51742
2.85225
2.69177
2.73485
2.88259
2.59705
2.70581
2.6799
2.88289
3.12803
3.15299
3.00083
2.96644
3.08544
3.03094
3.19325
3.24014
3.21769
3.00976
2.98404
3.17394
3.02779
3.04246
2.42684
2.61967
2.53569
2.59439
2.47591
2.479
2.51122
2.74686
2.81501
2.86859
2.92059
2.67826
2.75339
2.70907
2.91802
2.97931
3.0365
3.03241
3.09731
3.14429
3.12453
3.06822
3.0656
3.07231
3.05997
3.08178
3.12736
3.05152
3.0759
3.03791
3.07596
3.0769
3.091
3.0734
3.06654
3.07115
2.56
2.45331
2.52486
2.63821
2.65755
2.5316
2.54426
2.63093
2.94429
2.79786
2.83862
2.67719
2.7982
2.98255
2.96402
3.04147
3.07029
3.09718
3.14033
3.14489
3.20279
3.22696
3.22739
3.19769
3.16935
3.1896
3.1431
3.20313
3.18227
3.18548
3.14431
3.11845
3.10756
3.05704
3.09835
3.10037
3.12572
3.09693
3.07062
3.06113
3.06648
3.06335
3.06716
3.09312
3.2387
2.44974
2.33474
2.41686
2.56398
2.59305
2.67024
2.84045
2.8292
2.86795
3.11048
3.00033
3.00882
3.27069
3.16369
3.14116
3.30512
3.27925
3.368
3.1655
3.13415
3.16556
3.15385
3.1573
3.08085
3.08245
3.13232
3.10815
3.11375
3.08884
3.06202
3.09258
3.09857
3.0873
3.09074
3.10223
3.37929
3.18469
3.06705
3.02381
3.02726
2.98073
2.77748
3.0249
3.32115
3.09143
3.09108
3.14627
3.13231
3.13892
3.12839
3.13773
3.09342
3.09131
3.1269
3.11501
3.10226
3.09167
3.10295
3.08921
3.54222
3.09771
3.09763
3.09742
3.09847
3.09949
3.10036
3.12712
3.11434
3.12565
3.12348
3.12475
3.09821
3.10537
3.10042
3.11332
3.11552
3.09936
3.10182
3.1002
3.10047
3.09942
3.10024
3.11773
3.11474
3.11617
3.11658
3.11619
3.10233
3.10475
3.10812
3.1097
3.11282
3.11171
3.10185
3.103
3.10117
3.10176
3.11235
3.11223
3.11038
3.10532
3.10963
3.10716
3.11341
3.11207
3.10363
3.10514
3.10733
3.10989
3.10953
)
;

boundaryField
{
    movingWall
    {
        type            zeroGradient;
    }
    fixedWalls
    {
        type            zeroGradient;
    }
    frontAndBack
    {
        type            empty;
    }
    defaultFaces
    {
        type            empty;
    }
}


// ************************************************************************* //
