/*--------------------------------*- C++ -*----------------------------------*\
  =========                 |
  \\      /  F ield         | OpenFOAM: The Open Source CFD Toolbox
   \\    /   O peration     | Website:  https://openfoam.org
    \\  /    A nd           | Version:  8
     \\/     M anipulation  |
\*---------------------------------------------------------------------------*/
FoamFile
{
    version     2.0;
    format      ascii;
    class       volScalarField;
    location    "0.062";
    object      p;
}
// * * * * * * * * * * * * * * * * * * * * * * * * * * * * * * * * * * * * * //

dimensions      [0 2 -2 0 0 0 0];

internalField   nonuniform List<scalar> 
424
(
-4.32856e-06
0.0549466
0.01358
0.118118
0.0956781
0.247625
0.102411
0.0550357
0.27753
0.495539
0.478986
0.491871
0.0114635
-0.150482
0.508109
0.749803
0.508315
0.513984
-0.421993
-0.184056
0.749235
1.00248
0.672873
0.673589
-0.674186
-0.4366
-0.380983
-0.396394
0.988424
1.26992
1.47598
1.53836
0.850201
0.848282
-3.52156
-0.889008
-1.11167
-1.3891
-0.676895
-0.41237
-0.41752
1.23576
1.42964
1.52558
1.41535
1.00685
1.00449
-2.88775
-2.65087
-0.8873
-1.12254
-1.18074
-0.576921
-0.578141
1.4328
1.47052
1.02534
1.02156
-2.26893
-1.12625
-0.759556
-0.757248
1.51791
1.67541
-1.05155
-0.621396
-0.946268
-0.94521
1.92538
1.7087
-0.0206671
-0.598841
-1.01224
-1.03645
2.18169
1.93777
1.8983
1.91152
0.728317
0.00851751
4.37589
2.40411
1.47385
2.10452
2.6824
5.25518
2.88577
2.61765
2.17947
1.94303
1.94877
0.733713
-0.386793
3.94779
2.39746
1.45938
2.08229
2.56929
4.53662
2.64151
2.62751
2.10507
2.10581
-0.162742
-0.412593
2.29276
2.29032
0.393136
-0.163117
2.48809
2.49279
0.979259
0.392567
2.57515
2.60595
1.56102
0.978227
1.82266
1.55616
1.84079
0.130964
0.0406122
0.047793
0.0788331
0.0946092
0.165936
-0.0272785
0.0103155
0.224511
0.318152
0.333375
0.151107
0.177729
0.219205
0.336157
0.303759
0.294932
0.445437
0.461653
0.446458
0.0654866
-0.000492769
0.070399
0.0359202
-0.0162715
-0.0625808
-0.0402179
-0.160887
-0.0822152
-0.189131
0.000960182
0.044983
0.0690661
0.11393
0.305974
0.169842
0.363391
0.353388
0.490761
0.51137
0.583996
0.51344
0.59911
-0.03081
-0.0330456
-0.185972
-0.202724
-0.231947
-0.267436
-0.271631
-0.0484864
-0.281758
-0.0948434
-0.233462
0.643112
0.639063
0.751046
0.783357
0.679196
0.784463
-0.29368
-0.28161
-0.439146
-0.338938
-0.401502
-0.38138
-0.348948
0.885761
0.885152
0.985868
0.958334
1.05253
0.853803
0.943807
-0.546829
-0.672298
-0.503754
-0.554939
-0.419953
-0.515275
1.13596
1.15073
1.2072
1.21798
1.27455
1.22129
1.10959
1.18322
1.00481
1.08282
-0.788784
-0.883635
-0.696328
-0.776875
-0.583081
-0.700538
1.32538
1.30432
1.31731
1.35457
1.40205
1.38621
1.38254
1.38614
1.39077
1.4979
1.5004
1.44977
1.18467
1.27084
1.03846
1.18546
1.35378
1.38436
1.45393
-1.2654
-1.65517
-2.50196
-2.08797
-1.01827
-1.1173
-1.23151
-1.01888
-0.868098
-0.935384
-0.764246
-0.869992
-1.14725
-1.25486
1.50177
1.4476
1.45842
1.45282
1.51798
1.45795
1.46853
1.51758
1.56269
1.58835
1.68704
1.3404
1.4359
1.51167
1.49516
1.13832
1.26318
-1.4876
-1.41868
-1.63489
-1.23537
-1.08021
-1.10403
-1.14899
-1.00609
-1.07051
-0.94256
-1.01913
-0.854655
-1.19492
-1.10099
-1.07425
-1.11787
-1.22075
1.56627
1.62305
1.69907
1.55625
1.73551
1.73053
1.76241
1.78543
1.56426
1.77375
1.61189
1.73808
-0.817812
-0.723154
-0.941031
-0.594329
-0.698818
-0.564768
-1.09594
-1.10538
-0.7467
-0.756848
-1.02293
-1.12659
-1.03851
-1.07745
-1.24115
-1.172
-1.05086
-0.753269
1.77593
1.78998
1.94084
1.86885
1.91345
1.88614
1.87284
-0.395471
-0.399239
0.0271625
-0.357068
-0.0567724
-0.411739
-0.344862
-1.40075
-1.31499
-1.08182
-1.21413
-1.15624
-1.51014
-1.48562
-1.19796
2.06705
2.18188
2.01574
2.06495
1.94686
2.03003
0.311371
0.738185
0.0737642
0.327578
-0.1606
0.145249
-1.13431
3.71446
4.06679
2.31328
2.39275
2.1887
2.31081
2.11144
2.20104
1.14673
1.45224
0.806034
1.13722
0.417342
0.79242
2.57847
3.13396
2.5337
2.62167
1.88886
2.07566
2.3738
2.73885
3.01105
2.74797
3.2176
2.65032
2.52464
2.40089
2.47262
2.29177
2.39322
1.90381
1.44093
1.52926
0.981554
1.35575
2.2835
2.92141
2.65901
2.62053
2.17944
2.20519
2.79792
2.68009
2.70141
2.67882
2.58136
2.59595
2.479
2.58925
1.7919
2.03815
1.56981
1.77238
2.39697
2.65506
2.62625
2.64324
2.15864
2.35992
2.76896
2.63487
2.67418
2.59413
2.66897
1.84543
2.12325
2.62703
2.97746
2.88875
2.53057
2.56605
3.09529
3.05861
2.63789
2.55882
)
;

boundaryField
{
    movingWall
    {
        type            zeroGradient;
    }
    fixedWalls
    {
        type            zeroGradient;
    }
    frontAndBack
    {
        type            empty;
    }
    defaultFaces
    {
        type            empty;
    }
}


// ************************************************************************* //
