/*--------------------------------*- C++ -*----------------------------------*\
  =========                 |
  \\      /  F ield         | OpenFOAM: The Open Source CFD Toolbox
   \\    /   O peration     | Website:  https://openfoam.org
    \\  /    A nd           | Version:  8
     \\/     M anipulation  |
\*---------------------------------------------------------------------------*/
FoamFile
{
    version     2.0;
    format      ascii;
    class       surfaceScalarField;
    location    "0.062";
    object      phi;
}
// * * * * * * * * * * * * * * * * * * * * * * * * * * * * * * * * * * * * * //

dimensions      [0 3 -1 0 0 0 0];

internalField   nonuniform List<scalar> 
662
(
-2.03089e-05
1.61446e-05
4.16502e-06
2.07796e-05
-4.10885e-05
-8.80906e-05
3.5926e-05
6.83092e-05
-1.73838e-05
2.15488e-05
-0.000152188
8.48774e-05
1.04185e-05
-5.1507e-05
9.3769e-05
-7.52269e-05
-2.26115e-05
4.41603e-05
-0.000181034
3.92642e-05
1.72372e-06
-5.32307e-05
2.20326e-06
-0.000121859
-4.69516e-06
0.000124351
-3.42384e-05
3.64416e-05
0.000164451
-9.32938e-05
5.59817e-05
-1.18214e-05
-0.000184009
4.6983e-06
-7.67003e-07
-5.24637e-05
1.1541e-06
-0.000117003
-6.01026e-06
-3.30843e-05
5.77022e-05
-1.72043e-06
0.000196174
-4.35438e-05
-0.000182019
-2.75673e-06
-2.22606e-06
-5.02377e-05
3.65861e-06
-0.000103368
-1.72932e-05
-2.94257e-05
5.74439e-05
2.58265e-07
0.000198866
-4.41253e-06
-1.52497e-06
0.000123333
-0.000123537
1.72936e-06
3.45873e-05
-3.61123e-05
-0.000177587
-6.65754e-06
-4.1074e-05
-9.16367e-06
-2.19074e-05
-1.91666e-05
-1.71652e-05
-4.74225e-06
4.83451e-06
-8.81377e-05
-2.00647e-05
-2.45912e-05
-0.000141478
-0.000756499
0.000897977
6.07154e-05
-3.27147e-06
8.98346e-05
-2.91193e-05
-5.16433e-05
0.000199581
-4.56486e-07
-4.22385e-07
0.000120563
3.19162e-06
3.41649e-05
-0.000153302
-3.34492e-05
-9.63058e-05
-7.61627e-05
-4.39818e-05
-6.94891e-05
2.21533e-05
-2.68955e-05
3.45644e-06
-7.6818e-05
-1.47762e-05
-2.11347e-05
-0.000390668
0.000705376
-0.00107121
-0.000953907
0.00185188
0.000217034
-2.07251e-05
0.000293714
-0.000105799
-0.000148597
-3.59016e-06
0.00010693
1.72234e-05
3.05748e-05
-0.000116425
9.45966e-05
2.72859e-05
-5.41815e-05
-2.77548e-07
-3.90887e-07
-7.61496e-05
-2.14123e-05
0.00135492
-0.00160345
-0.000107482
0.00195937
-4.16491e-06
9.28668e-05
1.82283e-05
2.64098e-05
-0.000197995
0.000108856
-6.59358e-05
1.17543e-05
0.00161602
-0.000368577
0.00199295
-3.35878e-05
-2.85548e-06
8.01254e-05
1.55969e-05
2.35543e-05
-6.82581e-05
2.3223e-06
-0.000228821
4.25801e-05
0.00199104
1.90949e-06
0.0017114
-0.000128972
-5.42459e-06
2.9638e-05
5.5912e-05
1.81297e-05
-6.76844e-05
-5.73652e-07
-0.000232991
6.49196e-06
-1.65571e-08
-0.000112372
0.000108935
3.45353e-06
-3.15638e-05
3.15472e-05
0.00196113
2.99163e-05
0.0017316
-1.82948e-05
-0.00180573
0.00095013
0.000855595
-6.82449e-05
5.60489e-07
0.00191698
4.41434e-05
0.00187819
3.87991e-05
7.24601e-05
0.000156764
0.000793366
9.93886e-05
5.73752e-05
3.11437e-05
-0.000233712
1.47634e-07
-4.12254e-07
-0.000113114
1.1544e-06
-3.1976e-05
0.00171202
4.95026e-05
-0.000171988
-7.87472e-06
4.15475e-05
0.000138315
-0.00136394
0.000783635
0.0014359
-0.000244754
1.16025e-05
0.0016715
8.46646e-05
0.0015841
0.000126191
0.000292624
0.000416286
0.00116072
0.000321924
0.000151738
0.000108314
-8.57221e-08
-0.000112017
-1.01155e-06
-3.20617e-05
-0.000179489
-1.51402e-06
9.01539e-06
-5.32894e-05
4.54147e-05
4.77856e-07
-0.00010991
-2.58452e-06
-3.15838e-05
-0.000164362
4.63739e-06
-1.97646e-05
-5.48034e-05
1.66109e-06
-9.97285e-05
-1.1843e-05
-2.99227e-05
-0.000142518
7.19322e-06
-2.90369e-05
-5.0166e-05
7.86488e-06
-4.251e-05
-6.50834e-05
-2.20578e-05
-0.00012756
4.22683e-06
-1.91851e-05
-4.29728e-05
3.91978e-06
-2.01392e-05
-0.00011134
-3.8746e-05
-3.48263e-05
0.000501705
-0.000416827
-0.000139717
0.000208027
0.000361988
0.0001328
-0.000957262
0.000520276
0.000436986
-0.000538451
-0.000418811
-0.000667497
0.000371563
0.000295934
-0.000147221
-0.000749928
0.000211477
-0.000121648
-0.00062828
-0.000367726
0.000246078
0.0002107
-0.000627527
-0.000643833
0.000854533
-0.00106264
4.15967e-05
-0.000669877
-0.00102105
-0.000588263
-0.000100966
-0.000568911
-0.000372421
-0.000473387
-0.000415807
0.000548607
-0.000800713
0.0012377
-5.38197e-05
0.000115784
0.00112192
0.000487347
0.000455313
9.92273e-05
0.00038812
0.000423051
-0.000127118
0.000522279
-0.000471126
0.000344008
-0.000618347
-0.00040687
-0.000160792
3.64416e-05
0.000213579
-0.000801842
-0.000807468
-0.00137638
-0.000797143
-5.82002e-05
-0.00131818
-0.000479398
-0.000537598
-0.000241608
0.000696921
0.000880307
0.00126843
0.000653377
0.000241808
0.00102662
0.000404899
0.00011738
0.000646707
0.000184359
0.000159649
0.000301739
3.61122e-05
0.000121056
-0.000918199
-0.00119712
-0.000920956
2.97288e-05
-0.00122685
-0.000554891
-0.000525162
-0.000169689
0.000823067
0.000856929
0.000818654
0.000442039
0.000204668
0.00129897
0.000303468
0.000508136
1.38807e-05
-0.000934837
-0.00121297
-0.000941494
-0.00127462
6.165e-05
-0.000832198
-0.000442423
-0.000545227
-0.000483577
0.000781733
3.69212e-05
0.000781277
0.00131169
-1.27207e-05
0.00134861
0.000511328
0.000498607
-0.000330153
-0.000611341
-0.00116235
-0.000947728
-0.000214624
-0.00064479
-0.000391675
-0.000556053
0.000397325
-0.000611949
-0.000700043
0.00025762
-0.000302718
-0.000498353
-0.000240733
0.000919844
-0.000138568
0.000899119
0.00142425
-7.56427e-05
0.00128568
0.000515831
0.000440188
0.000308796
-0.000460127
0.000151331
-0.000303153
-0.000694828
-0.000135461
-0.000324666
0.000352781
-0.000428944
-0.000292009
-0.000848062
6.11232e-05
-0.000909185
-0.000633705
-0.000127656
-0.000301287
-0.000197146
-0.000102549
-0.000392874
9.01561e-05
-0.000241543
-0.000241124
-0.000150968
-0.000160696
-8.08467e-05
-0.000296157
-0.000134305
-0.000161852
0.0014414
-0.00159
0.00200579
-0.000564388
0.000934581
-0.000668871
0.000856534
4.2585e-05
0.000750735
-0.000839262
-0.000832705
0.00087529
0.00135265
-6.69601e-05
0.000519941
0.000458416
0.000391456
0.000559078
-0.00139834
0.00139324
-0.000834165
0.000495379
-0.000629684
-0.000170713
-0.000462992
0.00010047
-0.000401757
0.000808715
-0.00127171
-0.000504306
-0.000438558
-0.000191126
-0.00039545
-0.000532029
9.34712e-05
2.39058e-05
-0.000555935
-0.00024853
9.75618e-05
-0.000329376
0.000491229
-0.000397757
-2.14122e-05
-0.00224378
0.00167939
-0.000850534
0.00101052
-0.000739899
-0.000110635
0.000641942
0.00124733
-0.000372036
-0.000151015
0.000656772
-0.000136831
0.000284736
0.000407053
0.000270222
0.00051657
-1.82479e-05
-0.000498322
-8.50066e-05
-0.000749158
-0.000824905
-0.000308335
0.000306858
-0.000457873
-0.0004423
-0.000866852
-0.000404855
-0.00105798
-0.00103407
-0.000800305
-0.000757725
-8.5412e-05
-0.00094866
-0.000499461
-5.64742e-05
-0.000584873
-0.000257275
-0.000140482
-0.000313749
-3.15472e-05
-0.000728402
0.000617767
-0.00074665
0.00125971
0.00113074
-0.000290299
-0.000456351
0.000485486
-0.000775785
0.000492274
-0.000207538
3.44016e-05
0.00073036
-0.000244875
0.000232038
0.00029986
9.23217e-05
0.000339951
-0.000107913
3.16164e-05
0.000227223
-0.000192821
-0.000215078
-0.000183462
-0.000378978
0.000134103
-0.000122308
-0.000826352
-0.000880033
-0.000873541
-0.000443578
-0.000141294
-0.00126993
-0.000310296
-0.00045159
0.000184654
-0.000641005
0.00131539
0.0012971
-0.000438796
-0.000336989
-0.0010798
-0.000337431
-0.000674419
0.000166363
-7.40417e-05
-2.64575e-05
-0.000209919
0.000317833
-0.000183729
1.81297e-05
-4.54147e-05
-0.000929121
5.55794e-05
-0.000928973
-0.00123055
-3.93759e-05
-0.00117497
-0.000450435
-0.000489811
0.00128163
1.54661e-05
0.00133113
-0.00101702
-6.27777e-05
-0.00100156
-0.000665404
-0.000728182
0.00117279
0.000263109
0.00233351
-0.000915772
-1.32006e-05
-0.00090417
-0.00102773
-0.000147245
-0.00104093
-0.000490823
-0.000638068
0.0013258
5.33242e-06
0.00141046
-0.00113263
0.000131068
-0.00112729
-0.000747946
-0.000616878
0.00113905
-0.000846422
0.00140215
-0.000899183
-4.98706e-06
-0.000790869
0.00126332
0.000147144
0.00138951
0.000543089
-0.00181149
0.00102062
-0.000673753
0.00207591
-0.00165975
0.00110495
-8.43302e-05
0.000866405
-0.000871392
-0.00124794
0.000207007
-0.000381533
-0.000640652
-0.000433645
0.000630141
-0.000482998
-0.00120447
7.71768e-05
-0.000574329
-0.000645915
-0.000568738
-0.000299192
0.000842282
0.00177672
0.00116822
-6.32658e-05
0.000296827
-0.000838409
0.000355411
3.87287e-06
0.000783242
0.000993473
0.000698912
0.000444261
0.000254651
0.000380996
-0.000646916
0.000265383
-0.000350089
-0.000445488
-0.000180105
-0.000771455
0.000197127
-0.000416045
-0.000587923
-0.000390797
-0.000590331
0.000594204
0.000403142
-0.000491733
0.000141645
-0.000110738
-0.000633171
0.000217127
-3.89672e-05
-0.000311052
0.000200314
-5.64013e-05
0.000346741
-0.000222615
-8.09708e-05
-0.000410936
-0.000193809
-0.000339976
0.000146167
-0.000168112
8.71412e-05
3.22022e-05
-0.000378943
-2.20578e-05
3.48263e-05
)
;

boundaryField
{
    movingWall
    {
        type            calculated;
        value           uniform 0;
    }
    fixedWalls
    {
        type            calculated;
        value           uniform 0;
    }
    frontAndBack
    {
        type            empty;
        value           nonuniform List<scalar> 0();
    }
    defaultFaces
    {
        type            empty;
        value           nonuniform List<scalar> 0();
    }
}


// ************************************************************************* //
