/*--------------------------------*- C++ -*----------------------------------*\
  =========                 |
  \\      /  F ield         | OpenFOAM: The Open Source CFD Toolbox
   \\    /   O peration     | Website:  https://openfoam.org
    \\  /    A nd           | Version:  8
     \\/     M anipulation  |
\*---------------------------------------------------------------------------*/
FoamFile
{
    version     2.0;
    format      ascii;
    class       volVectorField;
    location    "0.062";
    object      U;
}
// * * * * * * * * * * * * * * * * * * * * * * * * * * * * * * * * * * * * * //

dimensions      [0 1 -1 0 0 0 0];

internalField   nonuniform List<vector> 
424
(
(-0.00293607 -0.000189923 6.80818e-26)
(-0.0146508 0.00096153 0)
(-0.0131014 0.00276765 2.04588e-23)
(0.000179541 0.00315091 -1.16693e-24)
(-0.0473504 0.005147 -2.47647e-23)
(-0.0230436 0.000844494 -3.3878e-23)
(-0.0029942 0.0138292 3.23417e-24)
(-0.00099531 0.0155046 -7.93375e-25)
(-0.0687314 0.00259455 -3.61309e-23)
(-0.0257638 0.000296797 3.10975e-23)
(-0.0703194 0.00228263 9.63744e-23)
(-0.0240368 0.000465927 0)
(-0.0051973 0.0503206 1.16781e-24)
(-0.000963592 0.0244864 0)
(-0.0744354 0.000564803 3.30258e-23)
(-0.0255798 -4.0794e-05 1.75109e-23)
(-0.0590457 0.000689164 0)
(-0.0196472 7.80966e-05 0)
(-0.000341377 0.0271117 0)
(-0.00267674 0.0732573 -2.78444e-23)
(-0.0733979 4.8098e-05 3.49544e-23)
(-0.0258192 -0.000338608 -1.87545e-23)
(-0.0573165 0.000236495 0)
(-0.0196364 5.601e-05 0)
(1.31921e-05 0.0260421 1.30697e-23)
(-0.000172666 0.0781276 2.51272e-23)
(-0.00233345 0.0684473 -3.74639e-23)
(-0.000418172 0.0233091 -3.8903e-23)
(-0.075079 -0.000327223 5.88738e-23)
(-0.0232395 -0.000847958 0)
(-0.0150323 -0.000969366 -1.31697e-22)
(-0.00303872 0.000215653 0)
(-0.0530487 -1.92025e-05 -1.05688e-22)
(-0.0180541 3.82501e-05 9.88295e-23)
(-0.0222841 0.0479302 6.83823e-23)
(0.000239865 0.0267985 0)
(0.000145835 0.0295863 -2.27068e-22)
(0.00335079 0.0631442 2.33921e-22)
(8.24625e-05 0.0746589 2.79498e-23)
(-0.000419344 0.0601105 3.9227e-24)
(-6.78164e-06 0.0199973 -3.85036e-24)
(-0.0699899 -0.0025684 -1.05445e-22)
(-0.0489879 -0.00549362 1.33516e-22)
(-0.0141019 -0.00310132 0)
(0.00022399 -0.00336403 -2.9552e-22)
(-0.0494709 -0.000265424 3.46999e-22)
(-0.0162216 -3.37408e-05 0)
(-0.106049 0.152677 -1.89065e-22)
(0.809203 0.0278417 -5.0186e-23)
(-0.000696167 0.0781708 -1.62203e-23)
(-0.00573106 0.0866512 0)
(-0.00507387 0.166845 -3.61595e-24)
(-0.000244482 0.0579404 0)
(-4.43892e-05 0.0199166 0)
(-0.0040002 -0.015197 5.94384e-23)
(-0.00125637 -0.0170677 2.58428e-22)
(-0.0531122 -0.000629255 0)
(-0.0174746 -0.000155182 0)
(0.405638 0.118729 1.41484e-22)
(0.861376 -0.0037885 -1.19169e-23)
(0.00014467 0.0544597 -9.27314e-23)
(-8.89642e-06 0.0187217 8.78993e-23)
(-0.00671182 -0.0544222 0)
(-0.00104163 -0.0268075 0)
(0.551434 0.0129204 1.56438e-22)
(0.882728 -0.00213945 0)
(0.000408049 0.0516057 -7.97513e-23)
(9.87597e-05 0.0174741 7.33901e-23)
(-0.000335107 -0.0292943 6.02644e-23)
(-0.00298262 -0.0790218 -1.8595e-23)
(0.880716 -0.00128593 -1.38272e-23)
(0.626369 0.0020612 -1.15918e-22)
(-0.00228611 0.0558751 0)
(-0.000204702 0.0209838 0)
(7.71663e-05 -0.0288845 4.72763e-23)
(-0.000366275 -0.0834791 1.91047e-23)
(-0.00189918 -0.0658958 -3.97205e-22)
(-0.000343493 -0.0224349 0)
(0.879094 -0.000317036 1.30629e-23)
(0.636997 -0.000767987 -4.91227e-23)
(0.826678 -0.0267488 0)
(0.000338154 -0.0288227 -9.09957e-23)
(0.881771 0.0014074 0)
(0.886709 0.00204227 0)
(0.865838 0.00377292 0)
(-0.019522 -0.0491254 0)
(0.00355485 -0.0683066 -4.80774e-22)
(0.000174743 -0.0308313 5.95668e-22)
(0.000290601 -0.0821691 4.36574e-23)
(-0.000559787 -0.0577222 0)
(-3.69063e-05 -0.0192433 0)
(0.639149 -0.00072584 -2.08441e-23)
(-0.104741 0.00186887 -4.20516e-23)
(0.447583 -0.115196 9.64674e-22)
(-0.000517955 -0.0839506 -8.91266e-23)
(0.641633 0.00131797 -1.2372e-22)
(0.643157 -0.00139827 2.5737e-22)
(0.570041 -0.0108387 -1.24184e-21)
(-0.108401 -0.154017 -1.80904e-22)
(-0.00644871 -0.179392 7.01047e-22)
(-0.00653545 -0.0905047 -5.69198e-22)
(5.52983e-05 -0.0573243 -3.09733e-23)
(3.51935e-05 -0.0196914 3.00377e-23)
(-0.0932104 5.79188e-05 0)
(-0.0405091 -4.34517e-05 -4.09734e-23)
(0.000387565 -0.0594213 -1.38401e-22)
(6.08864e-05 -0.0204893 -1.31588e-22)
(-0.0956157 -0.000318164 2.40229e-23)
(-0.0338654 6.26795e-06 0)
(-6.39961e-05 -0.0579755 9.95369e-23)
(8.55318e-05 -0.0199447 -9.48899e-23)
(-0.0893499 -0.000141653 -2.48826e-22)
(-0.0351847 -0.000111246 -2.27464e-23)
(-0.00299857 -0.0605784 0)
(-0.000220476 -0.0234963 0)
(-0.0824114 0.000297766 1.35985e-22)
(-0.0326837 -6.71771e-05 0)
(-0.0935522 -0.0016188 0)
(-0.0294529 -9.45802e-06 1.2164e-22)
(-0.0350914 -0.000114675 0)
(-0.0797236 0.017102 2.51289e-24)
(-0.0236539 0.0118468 0)
(-0.0636739 0.0352327 0)
(-0.0121534 0.0248762 -1.84904e-24)
(-0.129962 0.10707 2.70449e-23)
(-0.15765 0.0741148 4.77116e-22)
(-0.08641 0.136092 3.60188e-23)
(-0.107466 0.116578 -1.33038e-23)
(-0.154472 0.0625041 -8.02873e-22)
(-0.159244 0.0373093 -2.6391e-23)
(-0.136486 0.0285359 -7.20577e-22)
(-0.122888 0.0288278 -1.92549e-22)
(-0.146429 0.0477342 -6.42736e-22)
(-0.166173 0.0511722 8.39072e-22)
(-0.173045 0.0243178 -6.00123e-22)
(-0.180469 0.0268194 1.08105e-22)
(-0.112002 0.00669793 1.813e-22)
(-0.165192 0.00739599 1.24481e-21)
(-0.109421 0.00549257 2.62635e-22)
(-0.136132 0.00295604 3.40118e-22)
(-0.0367908 0.0644999 2.98949e-23)
(-0.103685 0.113223 0)
(-0.0718159 0.0680792 -2.47461e-23)
(-0.101891 0.0915839 0)
(-0.0735609 0.13898 5.30054e-23)
(-0.0750779 0.148131 -1.36499e-22)
(-0.0193342 0.0863773 -2.97312e-25)
(-0.0501134 0.165063 2.19498e-22)
(-0.0697521 0.133906 -4.78465e-23)
(-0.0472347 0.157512 2.86957e-22)
(-0.0615847 0.10385 -5.76686e-23)
(-0.0975148 0.0922498 -2.77339e-23)
(-0.108755 0.0662067 0)
(-0.0950806 0.0359772 1.2242e-22)
(-0.0232867 0.00244719 -2.9927e-22)
(-0.0654469 0.0141508 3.4527e-22)
(-0.160671 0.00870771 0)
(-0.179688 0.00904241 0)
(-0.188141 0.00221182 -8.63614e-22)
(-0.12477 0.000722799 -1.54642e-21)
(-0.181795 0.00212997 2.80044e-21)
(-0.102238 0.00153789 7.08775e-22)
(-0.144503 -0.000259769 7.39595e-22)
(-0.0349184 0.13159 -2.11358e-23)
(-0.044316 0.153535 2.05881e-23)
(-0.0339267 0.178039 -2.3469e-22)
(-0.00640082 0.118402 7.74683e-22)
(-0.0204725 0.182808 1.15943e-22)
(-0.0260358 0.150744 4.82141e-23)
(-0.0147834 0.16811 -3.00197e-22)
(-0.0335743 0.0890398 1.67366e-22)
(-0.0206263 0.131564 -1.17259e-21)
(-0.0144259 0.0642234 0)
(-0.00246958 0.0228882 0)
(-0.170558 -0.000968401 8.75408e-22)
(-0.187685 -0.000297519 -2.61178e-21)
(-0.127488 0.000711257 -9.19974e-22)
(-0.178962 0.000117995 2.91443e-21)
(-0.100087 -4.62335e-05 -1.15725e-21)
(-0.145361 -0.000447467 1.43859e-21)
(-0.00533142 0.164849 -6.92807e-22)
(-0.00649943 0.183298 5.23063e-22)
(0.0012141 0.128608 0)
(-0.00490227 0.160061 0)
(-0.00167915 0.187742 -1.05472e-21)
(-0.00396817 0.103307 8.01909e-22)
(-0.000375949 0.133313 0)
(-0.170361 0.00217777 8.74401e-22)
(-0.185646 0.00138061 1.97121e-22)
(-0.131537 0.000716663 1.26099e-21)
(-0.178086 -0.00155625 -1.91413e-21)
(-0.183731 -0.0033209 -2.01379e-21)
(-0.0963083 -0.000686795 -2.26909e-21)
(-0.136426 -0.000602672 9.84809e-22)
(0.00381242 0.168836 7.66847e-22)
(0.0008644 0.122805 -8.12011e-22)
(-0.000313064 0.181888 2.5593e-21)
(0.00247954 0.18792 -1.9777e-21)
(-0.000652065 0.105061 0)
(0.0006282 0.14594 0)
(-0.162245 -0.00625002 -1.4507e-21)
(-0.181805 -0.00877847 0)
(-0.180339 -0.0274025 1.76531e-21)
(-0.114253 -0.00652811 1.05928e-21)
(-0.17026 -0.0355131 -1.9664e-21)
(-0.171136 -0.0328424 -3.24544e-21)
(-0.154715 -0.00740658 1.9586e-21)
(-0.161104 -0.0241918 1.79042e-21)
(-0.095439 -0.000730685 -2.94384e-22)
(-0.122662 0.000427458 0)
(-0.000570942 0.168854 -4.27422e-22)
(-0.00393649 0.132681 0)
(0.00113333 0.180553 0)
(-0.000381093 0.186275 3.26986e-22)
(-6.53807e-05 0.0990934 0)
(0.00167029 0.144372 0)
(-0.148548 -0.0653339 0)
(-0.161645 -0.0580326 -2.16169e-21)
(-0.161995 -0.0621447 2.91988e-21)
(-0.134393 -0.0871474 0)
(-0.0786363 -0.0163407 0)
(-0.127554 -0.0277443 -1.2221e-21)
(-0.146671 -0.0352229 -2.28636e-21)
(-0.134186 -0.0691394 2.8083e-21)
(-0.146129 -0.0820222 -1.47929e-22)
(-0.0647381 -0.0339377 -7.03435e-22)
(-0.0248691 -0.0119622 0)
(-0.0137927 -0.0257294 2.1484e-21)
(-0.136456 -0.0334195 7.37919e-22)
(-0.140741 -0.0566571 -1.83379e-21)
(-0.0868002 -0.0014779 -1.29962e-21)
(-0.118169 -0.0266882 1.85714e-21)
(-0.117367 -0.0719206 8.61229e-22)
(-0.120999 -0.0882574 0)
(-0.104332 -0.102058 1.57276e-21)
(-0.0302075 0.234862 3.19097e-24)
(-0.128208 0.299472 -2.98934e-21)
(-0.141199 0.223798 3.13432e-21)
(0.118557 0.186749 -2.51995e-21)
(-0.0154487 0.171931 1.44027e-21)
(-0.0177917 0.139162 -1.74393e-21)
(-0.0481496 0.207895 -8.93424e-22)
(-0.016849 0.183918 -3.07495e-21)
(0.00077217 0.176781 -7.87762e-22)
(-0.00789495 0.181144 3.1822e-21)
(0.00109406 0.0941157 0)
(0.00223908 0.134314 2.89815e-22)
(-0.0626462 0.199753 4.23155e-21)
(-0.0997181 0.192629 -1.31936e-21)
(-0.107508 -0.119136 4.15215e-21)
(-0.128699 -0.104831 2.47839e-21)
(-0.12594 -0.106696 -3.33254e-21)
(-0.0773329 -0.0621091 5.33916e-22)
(-0.0964859 -0.120779 0)
(-0.10225 -0.0866682 2.48065e-22)
(-0.0382285 -0.0629105 -3.00289e-21)
(-0.0847103 -0.141318 -5.84349e-21)
(-0.0226858 -0.0888496 0)
(-0.0698147 -0.142154 2.05126e-21)
(-0.0496951 -0.159867 0)
(-0.0788846 -0.0274533 3.18106e-21)
(-0.095732 -0.0620395 0)
(-0.0602235 -0.10602 -4.67064e-21)
(-0.0861465 -0.0946051 1.13909e-21)
(-0.0172805 -0.00145199 1.35888e-21)
(-0.0507152 -0.00948807 -5.47206e-21)
(-0.105478 0.238423 -5.34552e-22)
(-0.127777 0.2026 0)
(0.00996459 0.194907 1.96853e-21)
(-0.135441 0.109091 -1.29744e-21)
(0.264738 0.057367 9.57988e-22)
(-0.0273393 0.180224 2.0169e-21)
(-0.0485821 0.178442 -2.27142e-21)
(-0.00850243 0.150335 -1.66485e-21)
(-0.0187036 0.153281 2.87489e-21)
(0.000855087 0.0913608 1.34304e-21)
(-0.0063278 0.118242 -8.88807e-22)
(-0.155147 0.018934 0)
(-0.108133 0.126058 -1.91579e-21)
(-0.139505 0.0884164 1.08993e-22)
(-0.146383 0.0485584 3.14565e-21)
(-0.0530497 0.137944 -1.22837e-21)
(-0.0850203 0.113875 1.19672e-21)
(-0.0634031 -0.147577 2.24965e-22)
(-0.0629086 -0.162572 5.0555e-22)
(-0.0471706 -0.172953 0)
(-0.0377241 -0.127859 -2.84041e-22)
(-0.00864985 -0.12963 1.90401e-23)
(-0.0279909 -0.178643 -3.58783e-21)
(-0.0307157 -0.154771 1.83876e-21)
(-0.0212018 -0.167521 -2.03164e-21)
(-0.0332044 -0.0925959 3.19133e-21)
(-0.0244222 -0.132056 -2.66098e-21)
(-0.0126068 -0.0609775 0)
(-0.00220199 -0.0213945 0)
(-0.053046 0.0573271 -4.54552e-22)
(-0.113859 0.0269332 1.63244e-21)
(0.105232 0.0607337 -6.68015e-22)
(0.375427 0.0176535 1.67357e-21)
(-0.123039 0.0162626 0)
(-0.1726 0.0106456 0)
(-0.0163166 0.119134 -2.08484e-21)
(-0.0331379 0.114444 0)
(-0.163613 -0.00423073 0)
(-0.160869 0.00215405 0)
(-0.00694412 0.0859355 0)
(-0.00615809 0.0971958 -9.49264e-22)
(-0.123103 0.00538365 0)
(-0.121496 0.0338106 -3.18306e-21)
(-0.0434927 0.0642206 0)
(-0.0821317 0.0683677 0)
(-0.0965909 0.0406491 2.6935e-21)
(-0.150193 -0.010605 5.67795e-22)
(-0.0119617 -0.182373 2.51299e-21)
(-0.0113686 -0.1676 0)
(0.000252526 -0.135162 -4.01937e-23)
(-0.0072866 -0.159275 0)
(-0.0035112 -0.186116 0)
(-0.00453367 -0.102091 -3.52121e-21)
(-0.00281845 -0.132129 3.21292e-21)
(-0.0441463 0.0167191 0)
(0.12481 0.0123436 -1.3881e-21)
(0.375674 0.00255087 0)
(-0.182748 0.00432286 -4.68453e-22)
(-0.153141 0.00878667 1.18223e-23)
(-0.142658 0.00537123 -2.50517e-22)
(-0.172606 0.00599811 1.30656e-22)
(-0.00426038 0.0314566 5.48591e-21)
(-0.0320814 0.0259225 -1.03255e-21)
(-0.0693745 0.0123211 -2.11793e-21)
(-0.0823828 -0.0142312 0)
(-0.0826032 -0.00360035 0)
(0.00029801 0.00911611 1.72037e-21)
(-2.38673e-05 0.022986 -6.50316e-21)
(-0.0635033 -0.00552417 0)
(0.00202305 -0.175033 -5.44288e-22)
(0.00038086 -0.134952 3.98484e-23)
(-0.00164385 -0.179613 -4.63201e-21)
(0.00125172 -0.187502 4.30826e-21)
(-0.0014678 -0.0997801 0)
(0.000229487 -0.143139 -5.35957e-22)
(0.0990735 -0.00268324 0)
(0.363299 -0.00154233 0)
(-0.166818 -0.00193025 4.27474e-22)
(-0.092816 -0.00224063 -3.64891e-22)
(-0.148404 0.000225626 3.31497e-22)
(-0.182022 0.0067432 -5.56579e-22)
(-0.0244876 -0.000849224 0)
(0.131221 -0.1864 -5.76532e-21)
(-0.150138 -0.226959 9.82747e-21)
(-0.000619004 -0.172984 1.67242e-22)
(-0.00342845 -0.137459 0)
(0.000955001 -0.1792 3.94842e-21)
(-0.000663936 -0.186323 -2.87809e-21)
(0.000625308 -0.0970257 0)
(0.00241475 -0.148307 -1.02843e-21)
(0.0909627 -0.000121957 -3.84589e-23)
(0.357827 -0.00326462 -2.09549e-21)
(-0.189041 -0.00314937 -2.1409e-21)
(-0.101915 -0.00017833 -6.25791e-22)
(-0.15165 0.00168133 5.32861e-22)
(-0.189774 -0.00175637 0)
(0.267633 -0.0533235 -6.96172e-21)
(0.0263703 -0.166606 -6.40573e-21)
(-0.0150114 -0.173299 0)
(-0.01924 -0.143792 0)
(0.131349 -0.0083633 -3.06326e-21)
(0.383152 -0.015735 2.61086e-21)
(0.128924 -0.0594204 1.15831e-20)
(-0.0540574 -0.212795 0)
(-0.112203 -0.219803 9.19457e-21)
(-0.0350507 -0.250739 1.60224e-21)
(-0.14758 -0.306089 -2.59641e-21)
(-0.0665447 -0.195519 -1.8024e-23)
(-0.0153814 -0.183504 -3.83789e-21)
(0.000210882 -0.177997 1.65009e-21)
(-0.00636375 -0.180796 6.07316e-21)
(0.00117433 -0.106704 -3.64511e-21)
(0.000157505 -0.145238 2.36683e-21)
(-0.0479354 -0.0138277 2.45576e-21)
(-0.169398 0.00266184 3.73792e-21)
(-0.164829 -0.00565789 -3.37345e-21)
(-0.143893 7.09799e-05 2.48788e-22)
(-0.174288 -0.0002507 0)
(-0.0616685 -0.06585 -3.8454e-21)
(-0.147695 -0.173647 -2.63115e-21)
(-0.0446764 -0.175845 -6.38866e-21)
(-0.0270812 -0.177135 7.55008e-22)
(-0.126379 -0.0150663 0)
(-0.114894 -0.0286203 -9.97052e-22)
(-0.130308 -0.173497 -6.74509e-21)
(-0.0889262 -0.17827 8.70799e-21)
(-0.0734813 -0.131073 6.39504e-21)
(-0.0510718 -0.140283 0)
(-0.00744795 -0.14365 0)
(-0.0175702 -0.147961 -2.51028e-21)
(-0.00140207 -0.0992672 0)
(-0.00755877 -0.121864 0)
(-0.186509 0.000122774 2.82185e-21)
(-0.177055 -0.0053092 -5.44349e-21)
(-0.136615 0.00214888 -2.61902e-22)
(-0.168423 -0.00295492 -1.59654e-21)
(-0.155228 -0.019813 5.16629e-21)
(-0.147641 -0.0742793 -4.46187e-21)
(-0.018364 -0.117637 1.505e-21)
(-0.0341637 -0.116459 3.62302e-21)
(-0.173434 0.00442511 4.46158e-21)
(-0.15551 0.00194767 -1.78855e-22)
(-0.0429344 -0.0654123 -8.00967e-21)
(-0.0769159 -0.078622 3.85606e-22)
(-0.109526 -0.0626709 1.41767e-21)
(-0.00735697 -0.0840793 0)
(-0.00803595 -0.0946534 -2.74651e-21)
(-0.137217 -0.00455754 -2.16305e-21)
(-0.157908 0.00805896 1.53811e-21)
(-0.0879592 0.0166512 1.42688e-21)
(-0.0065883 -0.0284949 0)
(-0.0340135 -0.021608 3.56601e-21)
(-0.102346 0.0107605 1.60376e-22)
(-0.0931781 -0.00935406 0)
(0.000154683 -0.00962444 0)
(-0.0010963 -0.0231232 0)
(-0.0612036 0.00665255 -3.74764e-21)
(-0.0225752 0.00111869 2.94954e-21)
)
;

boundaryField
{
    movingWall
    {
        type            fixedValue;
        value           uniform (1 0 0);
    }
    fixedWalls
    {
        type            noSlip;
    }
    frontAndBack
    {
        type            empty;
    }
    defaultFaces
    {
        type            empty;
    }
}


// ************************************************************************* //
