/*--------------------------------*- C++ -*----------------------------------*\
  =========                 |
  \\      /  F ield         | OpenFOAM: The Open Source CFD Toolbox
   \\    /   O peration     | Website:  https://openfoam.org
    \\  /    A nd           | Version:  8
     \\/     M anipulation  |
\*---------------------------------------------------------------------------*/
FoamFile
{
    version     2.0;
    format      ascii;
    class       volScalarField;
    location    "0.015";
    object      p;
}
// * * * * * * * * * * * * * * * * * * * * * * * * * * * * * * * * * * * * * //

dimensions      [0 2 -2 0 0 0 0];

internalField   nonuniform List<scalar> 
656
(
-1.93236e-08
-0.23527
1.72219
-0.778096
0.188884
1.72546
-1.14286
-1.54487
2.04564
1.72011
1.77944
-0.429318
0.385652
1.74262
2.02626
2.25561
1.65022
1.60111
2.26357
2.39853
1.81783
1.83691
1.80215
1.83125
-0.0578477
0.615793
1.77006
2.01031
2.24842
1.85959
1.88244
2.57788
2.40232
2.39495
2.57654
2.7268
2.1726
2.18847
2.15355
1.79801
1.86626
0.290514
0.818809
1.80642
2.00144
2.24319
2.20249
2.21485
2.91051
2.72747
2.57937
2.39234
2.57523
2.72578
2.91034
3.08458
2.18112
2.19533
2.20679
2.13712
2.16606
1.8286
1.99729
2.23823
2.21694
2.22564
3.08473
2.90925
2.72784
3.40464
2.3899
2.57365
2.72376
2.9085
3.08289
2.20648
2.21654
2.21877
2.21859
1.98869
2.23025
2.21807
2.21768
3.66202
3.40164
3.08221
2.90745
3.40355
3.61101
4.86485
2.38416
2.5729
2.72014
2.90798
3.08251
2.12219
2.1176
2.11848
2.12024
2.12179
2.1229
5.42233
5.12559
3.70406
3.39065
3.07799
3.40819
3.57288
4.63278
5.03335
2.15267
2.1373
2.12899
2.12249
2.11627
2.1108
3.49488
5.86108
5.35139
3.73637
3.37511
3.43177
2.18107
2.16952
2.15883
2.14985
2.14193
2.13493
3.56996
3.57956
6.28052
5.56493
3.75466
3.56539
2.27456
2.26102
2.24933
2.23962
2.231
2.22366
3.22549
3.57264
3.67945
6.72557
5.82022
3.2285
2.37707
2.36617
2.35537
2.34604
2.338
2.33124
3.16174
3.22453
3.56977
3.79147
7.22142
3.17049
3.1108
2.46104
2.46204
2.45708
2.44741
2.43739
2.4289
3.10418
3.15332
3.22296
3.55936
3.87875
3.10172
2.52713
2.55344
2.54857
2.53458
3.09793
3.09703
3.14524
3.21909
3.54455
3.09728
3.18063
2.40605
2.39752
3.10519
3.09505
3.09308
3.09089
3.13638
3.21327
3.15866
3.18406
3.19934
3.10969
3.10429
3.09221
3.08904
3.08504
3.12781
3.14434
3.16025
3.18777
3.1998
3.30146
3.114
3.10935
3.10309
3.09012
3.08547
3.07974
3.13581
3.14489
3.16101
3.19047
3.20976
3.34036
3.11579
3.11399
3.10904
3.10241
3.08843
3.08235
3.12966
3.1357
3.14485
3.16113
3.19217
3.21879
3.11576
3.11584
3.11419
3.10904
3.10197
3.08701
3.12639
3.12932
3.13533
3.14453
3.16102
3.19306
3.11733
3.11559
3.11594
3.11436
3.10915
3.10161
3.12694
3.12619
3.12891
3.13488
3.1441
3.16089
3.11933
3.11723
3.11546
3.11603
3.11459
3.10926
3.12195
3.1242
3.12713
3.12598
3.12852
3.13449
3.14378
3.11927
3.11708
3.11538
3.11611
3.1148
3.12197
3.12436
3.12729
3.12583
3.12815
3.13418
3.11919
3.11695
3.11533
3.11618
3.12201
3.12455
3.12738
3.12571
3.12783
3.11913
3.11683
3.11529
3.12204
3.12471
3.12744
3.12563
3.11907
3.11673
3.12207
3.12486
3.12749
3.11902
3.12209
3.12499
0.619684
0.921104
2.13833
2.06548
1.84561
1.81696
1.84331
1.37964
1.47886
1.26472
1.80894
1.86499
2.16633
2.16258
2.1901
2.18372
2.12953
2.10127
2.03026
1.97344
1.75441
1.5716
1.91844
1.84373
1.99341
2.00364
1.8988
2.13486
2.13795
2.1667
2.17832
2.18955
2.15028
2.10761
2.113
2.01276
1.95367
2.14261
2.23053
2.11619
2.37812
2.28369
2.15677
2.09809
4.51283
4.73696
3.38437
2.57776
2.47478
3.23029
3.07641
2.72045
2.68094
3.02082
2.91348
2.85586
2.17504
2.15052
2.16319
2.20913
2.25568
2.2528
2.23876
2.22591
2.28464
2.18312
2.47201
2.41307
2.31293
2.32726
4.01208
3.57386
3.50401
4.02046
3.83794
3.46485
3.33073
3.35065
3.21823
2.6628
2.56418
3.13418
3.02731
2.93653
2.86159
2.78376
2.18812
2.20841
2.23054
2.29166
2.31316
2.38395
2.40194
2.59459
2.45073
2.39566
2.68606
2.51464
2.46049
3.70562
3.57889
3.52564
3.55973
3.48807
3.41157
3.27509
3.21683
3.10461
3.00733
2.92612
2.789
2.74451
2.28347
2.30051
2.32147
2.4118
2.42626
2.47881
2.50995
2.63257
2.5816
2.84134
2.76979
2.63119
2.58027
3.22171
3.35355
3.36702
3.39834
3.32243
3.23911
3.15616
3.08167
2.92532
3.02512
2.9474
2.38648
2.59163
2.42957
2.43934
2.48778
2.49673
2.56088
2.88293
2.72556
2.76945
2.91012
2.63418
2.74139
2.71605
2.90627
3.16489
3.18949
3.01502
2.98309
3.0887
3.04226
3.22368
3.27412
3.24733
3.02809
3.0065
3.20647
3.06032
3.06989
2.47813
2.65915
2.58083
2.63502
2.52637
2.52727
2.56004
2.77742
2.8439
2.89223
2.93925
2.71468
2.78399
2.74195
2.93763
2.99275
3.04442
3.03911
3.096
3.13909
3.12132
3.07595
3.07596
3.1077
3.10282
3.11864
3.1653
3.06646
3.08615
3.0551
3.10993
3.0968
3.12443
3.10001
3.09804
3.10487
2.60505
2.51279
2.5749
2.67853
2.69723
2.58357
2.5934
2.67205
2.95746
2.82493
2.86349
2.71637
2.82543
2.99133
2.97633
3.04245
3.06961
3.09398
3.13168
3.13707
3.18759
3.20799
3.20777
3.18345
3.15805
3.17809
3.13962
3.19002
3.17344
3.1782
3.14219
3.12134
3.11458
3.07223
3.12365
3.13036
3.15209
3.10967
3.09963
3.08491
3.09372
3.09236
3.09475
3.11749
3.21863
2.51955
2.42195
2.49318
2.62086
2.64497
2.71233
2.8626
2.85286
2.88735
3.10221
3.00361
3.01348
3.24068
3.14993
3.12858
3.27156
3.24748
3.32385
3.16121
3.13583
3.16344
3.15403
3.15787
3.10254
3.10405
3.13583
3.11635
3.1232
3.10386
3.08979
3.11263
3.11518
3.10824
3.11146
3.11992
3.33414
3.16438
3.06287
3.02081
3.02498
2.98666
2.81509
3.02416
3.27923
3.10854
3.10832
3.14821
3.1374
3.14651
3.13785
3.14404
3.11105
3.11089
3.13515
3.1258
3.11677
3.11096
3.11975
3.10683
3.46632
3.11424
3.11375
3.11351
3.1148
3.11517
3.11567
3.13701
3.12662
3.13699
3.13402
3.1362
3.1145
3.12067
3.1161
3.12583
3.12825
3.11604
3.11819
3.11582
3.11728
3.11592
3.1167
3.13065
3.12783
3.1299
3.13016
3.12904
3.11779
3.12048
3.12374
3.12317
3.12726
3.12652
3.11739
3.1186
3.11719
3.11802
3.12631
3.12639
3.12469
3.12055
3.12377
3.1218
3.12661
3.12554
3.11933
3.1205
3.12197
3.12421
3.1233
)
;

boundaryField
{
    movingWall
    {
        type            zeroGradient;
    }
    fixedWalls
    {
        type            zeroGradient;
    }
    frontAndBack
    {
        type            empty;
    }
    defaultFaces
    {
        type            empty;
    }
}


// ************************************************************************* //
