/*--------------------------------*- C++ -*----------------------------------*\
  =========                 |
  \\      /  F ield         | OpenFOAM: The Open Source CFD Toolbox
   \\    /   O peration     | Website:  https://openfoam.org
    \\  /    A nd           | Version:  8
     \\/     M anipulation  |
\*---------------------------------------------------------------------------*/
FoamFile
{
    version     2.0;
    format      ascii;
    class       volScalarField;
    location    "0.015";
    object      p;
}
// * * * * * * * * * * * * * * * * * * * * * * * * * * * * * * * * * * * * * //

dimensions      [0 2 -2 0 0 0 0];

internalField   nonuniform List<scalar> 
424
(
1.47798e-06
0.0586374
0.013495
0.107261
0.0975765
0.247672
0.0919502
0.0407889
0.276827
0.492727
0.463655
0.475648
-0.000860345
-0.159666
0.505234
0.746883
0.502591
0.507829
-0.425112
-0.192424
0.746137
0.999622
0.668828
0.669502
-0.677628
-0.43997
-0.371405
-0.385766
0.985438
1.26143
1.46239
1.52837
0.848321
0.846456
-3.52344
-0.892545
-1.11087
-1.38331
-0.680374
-0.412631
-0.417442
1.22833
1.41828
1.51551
1.4165
1.00749
1.00514
-2.88974
-2.66453
-0.890664
-1.12301
-1.1774
-0.578918
-0.580019
1.43349
1.47564
1.03657
1.03295
-2.28266
-1.14405
-0.764188
-0.761953
1.52094
1.67545
-1.06642
-0.632248
-0.953638
-0.952946
1.92258
1.7081
-0.026198
-0.608215
-1.02929
-1.05354
2.1781
1.93513
1.88404
1.89615
0.722233
0.0028233
4.37287
2.40053
1.46762
2.10238
2.68306
5.24127
2.87198
2.60873
2.17588
1.93676
1.94199
0.727632
-0.381513
3.9448
2.39373
1.45333
2.07912
2.56771
4.52387
2.63104
2.61983
2.10072
2.10145
-0.165005
-0.407208
2.29045
2.28814
0.388757
-0.16528
2.48703
2.49167
0.972573
0.388217
2.58264
2.6135
1.55128
0.971495
1.80312
1.54617
1.82105
0.128882
0.0379209
0.0477866
0.0704997
0.0889238
0.162703
-0.0298047
0.00952306
0.218951
0.309706
0.325341
0.15106
0.173299
0.213743
0.329948
0.29963
0.29217
0.437782
0.447784
0.439769
0.0559051
-0.00116463
0.0644993
0.0345493
-0.0217737
-0.0643814
-0.0462036
-0.160114
-0.0827523
-0.186603
-0.00498113
0.0437127
0.0719689
0.116791
0.295014
0.169654
0.360898
0.35149
0.482588
0.508143
0.578537
0.507358
0.594415
-0.0415531
-0.0425201
-0.186434
-0.208924
-0.234507
-0.263178
-0.272056
-0.0526293
-0.277067
-0.0960877
-0.223657
0.639125
0.635631
0.748059
0.78071
0.674912
0.781577
-0.297611
-0.28595
-0.442078
-0.339258
-0.400194
-0.371883
-0.349323
0.8839
0.883913
0.98351
0.958813
1.05349
0.852074
0.943951
-0.54871
-0.67587
-0.503656
-0.556771
-0.419525
-0.515817
1.132
1.14688
1.20656
1.21229
1.27285
1.2206
1.11002
1.1842
1.00603
1.08387
-0.793905
-0.887504
-0.699418
-0.782463
-0.584859
-0.703684
1.32541
1.30335
1.31569
1.35699
1.39372
1.3752
1.37317
1.38285
1.38779
1.48711
1.49277
1.44905
1.18983
1.27404
1.04862
1.18976
1.35522
1.38594
1.45424
-1.26733
-1.65573
-2.50525
-2.0997
-1.02241
-1.11933
-1.23072
-1.02023
-0.876039
-0.944885
-0.7689
-0.87673
-1.14886
-1.26128
1.49849
1.44477
1.45534
1.44959
1.51252
1.45371
1.46849
1.51869
1.56031
1.58589
1.68072
1.34002
1.43123
1.51477
1.49322
1.15279
1.26805
-1.49364
-1.42505
-1.64819
-1.23468
-1.08958
-1.10958
-1.15575
-1.01642
-1.07868
-0.949907
-1.02877
-0.86035
-1.20023
-1.10461
-1.07661
-1.12122
-1.22756
1.564
1.61864
1.6924
1.55718
1.73113
1.72608
1.75381
1.77811
1.56573
1.76501
1.61092
1.72713
-0.831822
-0.729027
-0.954499
-0.600868
-0.70019
-0.565715
-1.10505
-1.10916
-0.746677
-0.758228
-1.038
-1.13616
-1.04033
-1.08141
-1.25199
-1.17742
-1.05772
-0.756343
1.77334
1.78652
1.93767
1.86142
1.9051
1.87268
1.8661
-0.401639
-0.404949
0.0222867
-0.359235
-0.0609047
-0.408584
-0.347942
-1.40596
-1.31567
-1.09
-1.22247
-1.16573
-1.52818
-1.4948
-1.20216
2.06264
2.17826
2.00911
2.06113
1.9401
2.0243
0.307275
0.731971
0.072348
0.32182
-0.16186
0.141946
-1.12835
3.70789
4.05637
2.31058
2.38959
2.18717
2.30816
2.10681
2.19912
1.13893
1.44573
0.800396
1.13038
0.412916
0.787248
2.57205
3.12995
2.52974
2.61498
1.88392
2.07062
2.37195
2.72983
3.00308
2.74355
3.20846
2.64388
2.52029
2.39873
2.47234
2.28973
2.39081
1.89948
1.42865
1.5195
0.974866
1.34653
2.2786
2.91611
2.65924
2.61895
2.16943
2.19786
2.79407
2.66815
2.69449
2.67813
2.58024
2.59557
2.47832
2.58761
1.78059
2.02776
1.55961
1.7613
2.38898
2.64783
2.6292
2.64381
2.14574
2.34969
2.76093
2.61838
2.6813
2.59984
2.67201
1.82716
2.10998
2.6207
2.96955
2.87624
2.52684
2.56478
3.09978
3.05337
2.62812
2.53916
)
;

boundaryField
{
    movingWall
    {
        type            zeroGradient;
    }
    fixedWalls
    {
        type            zeroGradient;
    }
    frontAndBack
    {
        type            empty;
    }
    defaultFaces
    {
        type            empty;
    }
}


// ************************************************************************* //
