/*--------------------------------*- C++ -*----------------------------------*\
  =========                 |
  \\      /  F ield         | OpenFOAM: The Open Source CFD Toolbox
   \\    /   O peration     | Website:  https://openfoam.org
    \\  /    A nd           | Version:  8
     \\/     M anipulation  |
\*---------------------------------------------------------------------------*/
FoamFile
{
    version     2.0;
    format      ascii;
    class       volVectorField;
    location    "0.015";
    object      U;
}
// * * * * * * * * * * * * * * * * * * * * * * * * * * * * * * * * * * * * * //

dimensions      [0 1 -1 0 0 0 0];

internalField   nonuniform List<vector> 
656
(
(0.74337 0.0565324 -9.66032e-25)
(0.927901 0.0140798 1.86551e-24)
(0.954565 -0.00127167 0)
(-0.0910969 0.118932 2.37957e-23)
(0.556657 0.0976656 1.11961e-23)
(0.840386 0.000898582 0)
(-0.0571733 0.0672366 -4.96068e-23)
(-0.0145869 0.0188602 9.79292e-24)
(0.967612 -0.00016038 0)
(-0.000564887 0.137744 -2.39688e-24)
(-0.00319772 0.191719 -7.89893e-23)
(-0.117818 0.171817 0)
(0.375737 0.139639 1.0048e-23)
(0.713362 0.00911428 0)
(0.88885 0.00119873 -1.70022e-22)
(0.902849 0.000489387 4.78251e-23)
(0.0010232 0.0819054 1.01573e-23)
(0.00137427 0.0266012 0)
(0.970727 -9.48724e-05 -3.43426e-23)
(0.90846 0.0002097 -1.44121e-22)
(-0.0124222 0.0907169 7.77393e-23)
(-0.00524884 0.0614982 0)
(-0.0239852 0.12199 1.34452e-24)
(-0.00820998 0.2404 1.56102e-22)
(-0.136285 0.222871 -1.6952e-22)
(0.209751 0.179948 -2.26385e-23)
(0.575014 0.0240851 0)
(0.796746 0.00610171 2.65595e-22)
(0.822755 0.00273 -8.89733e-23)
(-0.00144657 0.0349254 0)
(-0.000151966 0.0112197 0)
(0.91062 0.000100271 5.17802e-23)
(0.971755 -6.67546e-05 -3.68472e-23)
(0.83361 0.00134298 1.96454e-22)
(0.838012 0.000627401 -5.22463e-23)
(0.841806 3.15269e-05 -1.10383e-22)
(-0.00665452 0.0590723 -1.06237e-22)
(-0.00275634 0.039777 1.71959e-23)
(-0.0135365 0.0798489 -1.89903e-22)
(-0.0409551 0.154246 -1.58943e-22)
(-0.0173094 0.279724 1.67813e-22)
(-0.144103 0.268439 -5.28972e-24)
(0.0675609 0.216891 4.55122e-22)
(0.429305 0.0463509 0)
(0.690485 0.0155583 0)
(0.729205 0.00731025 -3.69966e-22)
(-0.000807939 0.0224161 -5.44151e-24)
(-0.00012742 0.00713851 0)
(0.843342 -0.000745814 1.22362e-22)
(0.912634 2.12677e-05 -2.82491e-23)
(0.971998 -3.27996e-05 4.98261e-24)
(0.745742 0.00371339 0)
(0.752649 0.00175237 0)
(0.758484 6.42128e-05 -1.08155e-22)
(0.76089 -0.0020691 4.67615e-22)
(0.748965 -0.00539368 0)
(-0.0100623 0.0353273 2.02108e-22)
(-0.00487582 0.0249437 2.97708e-22)
(-0.00197427 0.0160609 -2.90184e-22)
(-0.0245451 0.101086 -1.86872e-22)
(-0.0187156 0.0469883 5.89877e-22)
(0.281519 0.0775847 -1.32811e-22)
(0.569996 0.0306091 1.7508e-22)
(0.621251 0.015133 -5.21611e-22)
(-0.000543316 0.00862826 4.58845e-23)
(-6.89348e-05 0.00250603 6.14755e-23)
(0.835213 -0.00196282 -2.59401e-22)
(0.913561 -9.80979e-05 8.69209e-23)
(0.972531 1.27139e-05 5.58991e-24)
(0.716555 -0.0143739 -1.11833e-23)
(0.643592 0.00782671 0)
(0.653138 0.00378876 1.9524e-22)
(0.661339 0.000187889 2.06957e-22)
(0.664983 -0.00423656 -8.97397e-22)
(0.649457 -0.0112628 2.31453e-22)
(-0.00811232 0.013591 8.97884e-22)
(-0.00392636 0.00902714 -5.94065e-24)
(-0.00177189 0.00551445 0)
(-0.0006269 0.00300697 1.06832e-22)
(0.436743 0.0532805 0)
(0.499125 0.0277538 6.67086e-22)
(-8.95563e-05 0.00132425 -1.01139e-22)
(5.19001e-05 0.00026112 -3.11718e-23)
(0.59904 -0.0233328 4.78908e-22)
(0.813664 -0.00559271 1.51848e-22)
(0.909184 -0.000287374 0)
(0.973017 5.39317e-05 -5.37607e-23)
(0.605606 -0.0285409 -2.93546e-22)
(0.459966 -0.0456682 7.34566e-22)
(0.248885 -0.189862 -8.89063e-22)
(0.526608 0.0147067 0)
(0.538527 0.00712985 4.73143e-23)
(0.549363 0.000604725 -1.47292e-22)
(0.554836 -0.00770797 5.20415e-22)
(0.536457 -0.0208824 -8.85491e-22)
(-0.0144499 0.00599465 3.7892e-22)
(-0.00917322 0.00296719 -4.03724e-22)
(-0.00542694 0.00136341 -2.00052e-22)
(-0.00288932 0.000474403 3.96632e-22)
(-0.00124151 4.8893e-05 4.77503e-23)
(-0.00022977 -5.65985e-05 -2.88726e-23)
(-0.137523 -0.24783 5.93249e-23)
(0.410351 -0.147566 -6.19481e-23)
(0.729154 -0.00872784 -8.06331e-22)
(0.897643 -0.00103635 0)
(0.972132 0.000126286 0)
(0.480851 -0.0508431 5.60271e-22)
(0.31452 -0.0779182 -2.82197e-22)
(0.102414 -0.228175 1.0362e-22)
(-0.143001 -0.294494 1.39467e-21)
(-0.044424 0.010455 0)
(-0.0326571 0.00547539 1.90027e-22)
(-0.0227841 0.00270029 -6.71224e-22)
(-0.0145555 0.00109513 1.87159e-22)
(-0.00773775 0.000286343 -4.45947e-23)
(-0.00208906 2.94374e-05 -2.76883e-23)
(-0.00849191 -0.281218 0)
(-0.121049 -0.193464 0)
(0.582045 -0.103274 4.93395e-22)
(0.848499 -0.000819492 -4.05071e-23)
(0.969583 0.000210878 -1.04739e-22)
(-0.0174087 -0.322539 -1.65955e-21)
(-0.0708194 0.008911 0)
(-0.0532314 0.00496488 1.97141e-22)
(-0.0379556 0.00250343 -1.76899e-24)
(-0.0247919 0.00107515 9.76147e-23)
(-0.0135169 0.000340287 -4.58845e-23)
(-0.00391365 7.4028e-05 0)
(-0.0279676 -0.15319 -5.56746e-22)
(-0.00339281 -0.227696 0)
(-0.0951336 -0.135415 5.11125e-22)
(0.757512 -0.0597706 0)
(0.956053 0.00134804 7.7738e-23)
(-0.0472709 -0.190484 0)
(-0.0897483 0.00708071 0)
(-0.0681403 0.00396913 1.22784e-22)
(-0.0490384 0.00203735 -3.56194e-22)
(-0.0323316 0.000905249 1.15332e-22)
(-0.0178564 0.000314711 5.14829e-23)
(-0.00538574 8.81143e-05 -1.72856e-23)
(-0.0150595 -0.107767 2.85039e-22)
(-0.0147378 -0.115418 0)
(-0.000436457 -0.165651 -4.48024e-22)
(-0.0605356 -0.0772637 4.32805e-22)
(0.931324 -0.0147419 0)
(-0.0272497 -0.1338 0)
(-0.0965336 0.00595134 1.56532e-22)
(-0.0733289 0.00339829 -1.51195e-22)
(-0.0528285 0.0017446 1.46385e-22)
(-0.0348815 0.000772194 -2.80501e-22)
(-0.0193238 0.000269084 3.85803e-22)
(-0.00595841 7.50666e-05 -5.14521e-23)
(-0.0120582 -0.0596522 2.46675e-22)
(-0.00745443 -0.0810091 -5.28284e-22)
(-0.00605888 -0.0788802 1.53414e-22)
(0.00173675 -0.0988672 -4.64468e-22)
(-0.0141721 -0.0213355 1.31522e-23)
(-0.0216674 -0.0759475 0)
(-0.0130369 -0.0404135 -5.56485e-23)
(-0.0961213 0.00631882 -1.92742e-22)
(-0.0728901 0.00406176 7.77335e-22)
(-0.0525442 0.00220668 -7.42196e-22)
(-0.03479 0.000962281 0)
(-0.019343 0.000303411 0)
(-0.006049 6.66002e-05 -5.65247e-24)
(-0.00718572 -0.0316107 1.18705e-22)
(-0.00603914 -0.0439512 3.24096e-24)
(-0.00293366 -0.0552287 4.02725e-22)
(-0.00128975 -0.0447419 -1.5086e-22)
(0.00232661 -0.0305088 0)
(-0.00719236 -0.0193325 9.00433e-22)
(-0.0559692 0.00328098 8.4675e-22)
(-0.036775 0.00212722 -8.75929e-22)
(-0.0202686 0.0007671 0)
(-0.00625975 0.000138187 -7.95237e-24)
(-0.00397207 -0.0146741 -2.3871e-22)
(-0.00354639 -0.0231181 -9.28185e-23)
(-0.00247607 -0.029482 1.91621e-22)
(-0.000624818 -0.0313271 -1.30988e-22)
(0.000174284 -0.0135449 4.9933e-23)
(-0.0037928 -0.00753421 0)
(-0.00225301 0.00484144 -1.02143e-21)
(-0.044021 0.000872536 0)
(-0.0154524 0.0003206 -2.77507e-23)
(-0.00155995 -0.00203862 0)
(-0.00203364 -0.00556399 -2.42418e-22)
(-0.00194151 -0.0104415 -4.64335e-22)
(-0.00145684 -0.0153829 -6.33288e-23)
(-0.000655651 -0.016537 1.28789e-22)
(7.33025e-05 -0.00976858 -5.01253e-23)
(-0.0010011 0.00162648 2.08896e-21)
(-0.00111166 0.00299826 2.17316e-21)
(-0.00254744 0.00423222 6.992e-23)
(-0.000496177 -0.000153425 -4.84066e-22)
(-0.000799084 -0.00130059 -5.725e-25)
(-0.000962647 -0.00382893 1.25558e-22)
(-0.000794739 -0.00677561 3.76204e-22)
(-0.000407918 -0.00857146 7.72849e-24)
(-5.7879e-05 -0.00519619 -2.31151e-23)
(-0.000333563 7.36832e-05 -1.2618e-24)
(-0.000443891 0.000682689 -1.74715e-21)
(-0.000477085 0.00182533 -5.25429e-22)
(-0.00112842 0.00210598 0)
(-0.00263718 0.0082744 1.49806e-21)
(-3.1393e-05 0.000317157 -2.60085e-22)
(-0.000217754 4.89136e-05 2.58053e-22)
(-0.000354546 -0.000742711 1.28967e-22)
(-0.00038307 -0.00239499 0)
(-0.000226336 -0.00368895 -1.23325e-22)
(-5.31003e-05 -0.00270218 1.73715e-23)
(-7.10109e-05 -0.000635469 8.30754e-22)
(-0.000106539 -0.000285382 3.34818e-22)
(-0.000172882 0.000147299 1.96949e-22)
(-0.000156934 0.00100932 5.34806e-23)
(-0.000281445 0.000904099 -6.10415e-23)
(-0.000381022 0.0019891 1.07847e-21)
(7.19082e-05 0.000176173 1.08701e-21)
(1.243e-05 0.000345396 -4.0675e-22)
(-7.92044e-05 0.000154044 -2.65546e-22)
(-0.000129796 -0.000363608 -1.29241e-22)
(-0.000103821 -0.00125326 0)
(-3.33152e-05 -0.00113645 -1.13926e-23)
(0.000133445 -0.000741046 0)
(2.12448e-06 -0.000687711 -2.87219e-22)
(-2.28921e-05 -0.000410097 -9.89055e-22)
(-4.96151e-05 -9.77895e-05 3.21708e-22)
(-2.39584e-05 0.00045409 -3.57125e-22)
(-1.19938e-05 0.00015367 9.60786e-24)
(0.000177645 6.06894e-05 -4.72123e-22)
(5.41406e-05 0.000157774 7.19723e-22)
(2.02233e-05 0.00031578 -6.96383e-22)
(-2.17301e-05 0.000174087 1.33124e-22)
(-2.73107e-05 -0.000133796 0)
(-1.18308e-05 -0.0003657 1.12646e-23)
(0.000155504 -0.000315516 0)
(0.000100271 -0.000681965 5.52902e-22)
(1.57468e-05 -0.00061573 7.19302e-22)
(3.52121e-06 -0.000381458 9.42285e-22)
(-3.3178e-07 -0.000147834 -3.33929e-22)
(6.1459e-06 0.000104841 -2.19875e-23)
(0.000316979 7.33781e-05 -5.63846e-22)
(0.000151387 3.62568e-05 0)
(3.11682e-05 0.000124186 5.16846e-22)
(1.56444e-05 0.000245672 0)
(3.95963e-07 0.000132597 0)
(2.07666e-06 -1.8015e-05 0)
(0.000324739 -8.73026e-05 6.29848e-22)
(9.42723e-05 -0.000264633 -5.7178e-22)
(6.12006e-05 -0.000558114 -5.62608e-22)
(1.44132e-05 -0.000469993 -4.19777e-22)
(1.00579e-05 -0.000261585 -4.36019e-22)
(8.60935e-06 -7.46553e-05 1.31015e-23)
(0.000415169 4.96207e-05 0)
(0.000294617 4.66951e-05 1.41298e-22)
(0.000115059 1.88899e-05 0)
(1.40481e-05 8.5552e-05 2.06799e-27)
(8.56773e-06 0.000152254 0)
(4.73667e-06 5.13926e-05 -9.02389e-23)
(0.00050554 2.61156e-05 0)
(0.000559275 -5.36582e-05 -5.68461e-22)
(0.000261627 -5.45622e-05 -1.58494e-22)
(4.79782e-05 -0.000198401 2.93268e-22)
(3.08791e-05 -0.000401731 -4.16913e-22)
(1.08608e-05 -0.000287283 -1.32041e-22)
(7.62497e-06 -9.39292e-05 9.18409e-23)
(0.000383378 2.92553e-05 -1.89728e-23)
(0.000242761 2.56838e-05 -2.11316e-22)
(7.74053e-05 8.26893e-06 0)
(4.07788e-06 4.72527e-05 -1.08732e-22)
(4.10905e-06 4.83781e-05 9.10318e-23)
(0.000455705 1.20723e-05 2.10915e-24)
(0.000489585 -3.80791e-05 6.38384e-22)
(0.000192362 -2.88361e-05 -6.11248e-27)
(1.96989e-05 -0.000131489 1.19969e-25)
(1.2503e-05 -0.000234471 -2.66565e-22)
(6.28416e-06 -9.20637e-05 8.40009e-23)
(0.000316695 1.55256e-05 1.4935e-22)
(0.000176386 1.24273e-05 1.03096e-22)
(4.23407e-05 2.4097e-06 -1.26834e-22)
(4.72095e-07 1.24171e-05 2.31162e-23)
(0.000371447 5.18716e-06 2.10462e-24)
(0.00039076 -2.30028e-05 -1.41214e-22)
(0.000126851 -1.24153e-05 4.56041e-22)
(4.9357e-06 -7.04539e-05 -2.1369e-22)
(4.60744e-06 -6.93748e-05 3.34366e-26)
(0.000231769 7.25297e-06 0)
(0.00010482 4.84262e-06 1.14433e-22)
(1.13389e-05 2.22626e-07 8.01043e-23)
(0.000269677 1.44613e-06 0)
(0.000278663 -1.20393e-05 -2.06547e-22)
(6.84935e-05 -3.38366e-06 3.97642e-22)
(2.04921e-07 -1.7848e-05 4.42098e-23)
(0.000139687 2.70718e-06 -9.7572e-25)
(3.36747e-05 1.64729e-06 -1.43788e-22)
(0.00016173 -3.12185e-07 9.74451e-25)
(0.00016371 -5.37788e-06 -1.14505e-22)
(1.81936e-05 -1.20955e-07 1.13429e-22)
(4.74341e-05 8.48954e-07 4.36116e-23)
(5.47332e-05 -6.28336e-07 0)
(5.22369e-05 -2.26724e-06 -1.10429e-23)
(-0.143717 0.302198 2.23983e-21)
(-0.0285908 0.257189 5.04559e-22)
(-0.041001 0.123106 0)
(-0.0745297 0.181602 2.80839e-21)
(-0.0631159 0.188287 -2.96779e-21)
(-0.0746703 0.260913 0)
(-0.0386575 0.306615 0)
(-0.100172 0.349121 -1.03511e-21)
(-0.0891575 0.308717 0)
(-0.0429275 0.26279 -1.88644e-21)
(0.14543 0.123159 4.2384e-21)
(-0.0975911 0.26956 0)
(-0.0324818 0.0607155 -3.69237e-22)
(-0.0540064 0.0996454 0)
(-0.0155225 0.0185631 -3.85944e-21)
(-0.0367595 0.0446509 3.94942e-21)
(-0.0797153 0.11414 -2.29471e-21)
(-0.11099 0.14911 0)
(-0.094154 0.193575 0)
(-0.11903 0.22851 6.22666e-22)
(-0.113602 0.285967 0)
(-0.1037 0.281643 1.96505e-21)
(-0.0260802 0.186671 2.38093e-21)
(0.0845218 0.14993 -5.7191e-21)
(0.28918 0.0870213 1.12351e-21)
(-0.150346 0.221535 -5.94112e-22)
(-0.145696 0.239543 0)
(-0.0208107 0.0114304 -3.20283e-21)
(-0.0468722 0.0269188 8.76705e-22)
(-0.057542 0.0490196 7.29886e-22)
(-0.0862919 0.0762333 2.33322e-21)
(-0.114127 0.0742193 -4.50795e-21)
(-0.157842 0.105002 -3.98e-21)
(-0.153324 0.144165 -3.03937e-21)
(-0.180746 0.170597 5.69544e-21)
(-0.139493 0.19524 -1.65078e-21)
(-0.0729356 0.172985 -1.71848e-21)
(0.024004 0.119311 0)
(0.366206 0.0464032 -5.76595e-21)
(0.172003 0.10021 0)
(0.39525 0.0259555 0)
(0.216575 0.0534684 4.85067e-21)
(-0.203372 0.155956 0)
(-0.183744 0.163436 0)
(-0.015879 -0.27381 6.09938e-21)
(-0.149121 -0.325287 0)
(0.363855 -0.078781 0)
(0.401008 0.0120243 -1.99108e-22)
(0.237211 0.0286808 0)
(0.239359 -0.0881961 0)
(0.425537 -0.0341388 1.2043e-21)
(0.420312 0.00117597 3.75297e-21)
(0.25403 0.00640597 0)
(0.281158 -0.0398207 0)
(0.437292 -0.0136991 0)
(0.28181 -0.0137768 -3.81072e-21)
(-0.0605529 0.0207327 1.16649e-21)
(-0.0911777 0.032843 -1.47238e-21)
(-0.112467 0.0441154 4.82204e-21)
(-0.160387 0.0481457 0)
(-0.188265 0.074833 0)
(-0.215193 0.0827495 -3.15108e-21)
(-0.236425 0.104296 -2.39226e-21)
(-0.163129 0.122908 0)
(0.0398564 0.0711632 3.37524e-21)
(-0.0563037 0.104898 0)
(0.11493 0.0367634 0)
(-0.0243356 0.0583912 -3.65099e-21)
(-0.254161 0.0893179 7.9547e-21)
(-0.229214 0.0959047 -2.34893e-21)
(-0.0222303 -0.256403 -3.44022e-21)
(0.158501 -0.131385 7.77619e-21)
(0.127349 -0.14804 -6.07458e-21)
(-0.120604 -0.376901 1.72145e-21)
(-0.088075 -0.317597 -3.74984e-21)
(-0.0399954 -0.347229 2.46322e-22)
(0.0245501 -0.171936 -6.4596e-21)
(0.0218674 -0.141061 2.11497e-21)
(0.117141 -0.101536 3.27897e-21)
(0.089703 0.00636535 0)
(-0.011852 0.0298486 0)
(0.0489169 -0.0841987 -3.61366e-21)
(0.147698 -0.0514619 0)
(0.0575988 -0.0414147 -3.37128e-21)
(0.154923 -0.0198172 3.0742e-21)
(0.018098 -0.0108515 4.68387e-21)
(-0.0902455 0.014235 1.68388e-21)
(-0.129611 0.0216357 0)
(-0.154173 0.0297306 0)
(-0.193922 0.0336562 3.34698e-21)
(-0.223271 0.0492215 0)
(-0.248753 0.0487325 8.39727e-21)
(-0.270735 0.0615323 -7.16639e-21)
(-0.133648 0.0430532 0)
(-0.150888 0.0559908 -5.75267e-21)
(-0.226094 0.0703373 1.17135e-20)
(-0.207244 0.0302181 0)
(-0.277887 0.0588212 -7.57123e-21)
(-0.28119 0.0539979 -4.04544e-21)
(-0.0996422 -0.298633 0)
(-0.0891092 -0.232041 7.81859e-21)
(-0.0732635 -0.225275 0)
(-0.0693836 -0.304784 -5.32985e-22)
(-0.0983532 -0.304627 4.18608e-22)
(-0.12122 -0.220993 -8.03007e-21)
(-0.0859152 -0.169977 -7.39352e-21)
(-0.115311 -0.14391 9.83606e-21)
(-0.0694302 -0.102058 3.04471e-21)
(-0.132417 -0.0704071 -3.98331e-21)
(-0.0864372 -0.0457848 0)
(-0.110259 -0.0187712 -3.23776e-21)
(-0.189136 0.00454297 0)
(-0.11252 0.011161 0)
(-0.151565 0.0164352 -1.30851e-21)
(-0.178619 0.021078 -5.11732e-21)
(-0.207645 0.025796 4.38987e-21)
(-0.233369 0.0342355 -1.5581e-21)
(-0.248607 0.0351229 -2.00086e-21)
(-0.27569 0.043857 6.32012e-21)
(-0.26817 0.0340358 -7.06445e-21)
(-0.283879 0.0460267 8.60943e-21)
(-0.256953 0.0101392 0)
(-0.279053 0.028712 -1.2058e-21)
(-0.288922 0.0466093 0)
(-0.280088 0.0429044 0)
(-0.0450163 -0.15575 -1.2512e-20)
(-0.0901275 -0.225681 4.31447e-21)
(-0.111219 -0.231878 5.21166e-21)
(-0.129259 -0.262333 -7.19202e-22)
(-0.14923 -0.232985 6.63532e-22)
(-0.178078 -0.182365 -7.53847e-21)
(-0.184628 -0.146418 0)
(-0.202539 -0.0945995 -9.4823e-21)
(-0.25017 0.0125561 -4.44337e-21)
(-0.230806 -0.0701236 6.89823e-21)
(-0.260123 -0.0172802 2.83425e-21)
(-0.121813 0.00939514 4.6146e-21)
(-0.258925 0.0410851 2.74248e-21)
(-0.154522 0.0143911 -3.29688e-21)
(-0.176822 0.0187643 -2.85007e-21)
(-0.19956 0.0250542 -6.17054e-21)
(-0.230635 0.0313901 1.38041e-21)
(-0.237744 0.034467 -3.48894e-21)
(-0.259087 0.0354166 -2.72601e-21)
(-0.282277 0.0463086 6.81527e-22)
(-0.281093 0.0386315 1.24876e-21)
(-0.237524 0.0463957 4.86482e-21)
(-0.254432 0.044512 2.02465e-21)
(-0.263843 0.050106 -1.29594e-21)
(-0.256396 0.0476792 -1.94518e-21)
(-0.206281 0.0523134 -6.72417e-21)
(-0.0348861 -0.0912694 0)
(-0.0585218 -0.144483 8.3745e-21)
(-0.152958 0.0555874 0)
(-0.186817 0.045918 4.40806e-21)
(-0.0995267 0.0530607 8.4937e-21)
(-0.121021 0.049811 -5.6085e-21)
(-0.0801056 -0.156136 0)
(-0.121815 -0.192318 -4.95402e-21)
(-0.157359 -0.169027 1.51476e-20)
(-0.185282 0.023665 -5.87114e-21)
(-0.211764 0.00673415 4.65771e-21)
(-0.165581 -0.132153 -1.08042e-20)
(-0.210569 -0.0642549 1.14978e-22)
(-0.194503 -0.038856 -9.5067e-21)
(-0.120454 0.00941147 0)
(-0.231483 0.0419872 0)
(-0.214016 0.0314771 2.63981e-22)
(-0.218106 0.0370082 -3.60299e-22)
(-0.148927 0.0162461 -5.12344e-21)
(-0.173276 0.0212606 5.4486e-21)
(-0.18847 0.0251671 4.7244e-21)
(-0.246512 0.0556882 1.85127e-21)
(-0.238896 0.0555239 -4.20592e-22)
(-0.211544 0.062944 3.66456e-21)
(-0.193804 0.0626876 1.33433e-21)
(-0.224251 0.0458036 -5.54654e-21)
(-0.22818 0.0579349 1.86047e-23)
(-0.234896 0.0508953 4.73611e-21)
(-0.17021 0.0681562 2.31197e-21)
(-0.148082 0.0674654 -7.53501e-21)
(-0.0995414 0.0625602 2.88975e-21)
(-0.121406 0.0681269 2.39063e-21)
(-0.0793857 0.0610183 -3.36556e-21)
(-0.0473278 0.0463464 0)
(-0.0624587 0.0515735 2.79619e-21)
(-0.0752491 0.0479693 -2.40443e-22)
(-0.0678807 0.0418182 0)
(-0.0209041 -0.0484318 -4.24962e-21)
(-0.0422172 -0.0817769 4.15791e-21)
(-0.0508854 -0.0875084 2.91828e-21)
(-0.0836333 -0.11679 0)
(-0.0873292 0.0285914 1.0254e-20)
(-0.115597 0.0300515 0)
(-0.139412 0.0168542 5.69509e-21)
(-0.105125 -0.096645 1.3191e-22)
(-0.125486 -0.0210229 1.5452e-21)
(-0.132719 -0.103388 -4.26118e-21)
(-0.152822 -0.0454827 8.5463e-21)
(-0.0113792 -0.0242847 -5.01314e-22)
(-0.0208279 -0.0388923 0)
(-0.110587 0.00860721 0)
(-0.0750158 0.0029 -5.26007e-22)
(-0.090524 0.00381291 5.30246e-22)
(-0.193831 0.0357007 -3.0547e-21)
(-0.202397 0.0439218 2.68439e-21)
(-0.13093 0.0133503 0)
(-0.160971 0.0206534 -2.50397e-21)
(-0.174358 0.0284668 3.00472e-21)
(-0.169045 0.0718208 1.24794e-21)
(-0.205026 0.062745 -2.0388e-21)
(-0.198778 0.0670789 -2.58235e-21)
(-0.188132 0.0493959 -3.45769e-21)
(-0.187754 0.0589375 6.8426e-22)
(-0.149597 0.070422 0)
(-0.125109 0.0709857 0)
(-0.113026 0.0700396 0)
(-0.0897758 0.067613 -2.97278e-21)
(-0.072901 0.0625169 -1.66992e-21)
(-0.0561574 0.0571541 3.9813e-21)
(-0.0418125 0.0475694 0)
(-0.00638945 0.0141497 0)
(-0.00404813 0.00975117 -6.63807e-22)
(-0.0117371 0.0237857 3.57807e-21)
(-0.0188233 0.031646 -3.13656e-21)
(-0.0300756 0.04162 0)
(-0.0211661 0.0303453 -5.84126e-21)
(-0.0321699 0.0366187 3.01275e-23)
(-0.00882256 0.0157164 0)
(-0.0120617 0.0199211 -4.5902e-21)
(-0.00404931 0.0075076 0)
(-0.0338369 0.0328866 9.87698e-24)
(-0.0483708 0.0365122 1.54739e-23)
(-0.0474889 0.0284802 3.56139e-21)
(-0.074533 0.0239835 -4.3473e-21)
(-0.0293649 -0.0426633 8.89224e-21)
(-0.049247 -0.0572695 -1.87213e-20)
(-0.0725352 -0.0559625 3.98733e-21)
(-0.0704617 0.00949449 -2.2906e-21)
(-0.0782486 -0.0313525 8.44696e-21)
(-0.0947508 -0.0173649 -5.93574e-21)
(-0.00582042 -0.00948301 0)
(-0.010791 -0.016748 0)
(-0.013306 -0.0178344 -3.675e-21)
(-0.0260402 -0.0267623 -5.37843e-21)
(-0.00341521 0.00716821 5.61628e-22)
(-0.10229 0.00838867 1.29187e-21)
(-0.0607851 0.000426157 0)
(-0.0761434 0.00205574 -1.13043e-21)
(-0.126719 0.0242873 1.53971e-21)
(-0.14974 0.0309753 -4.54743e-21)
(-0.162801 0.0456428 -7.13082e-23)
(-0.13901 0.0568524 4.08807e-21)
(-0.1551 0.0634628 -4.78937e-21)
(-0.144 0.0682479 3.25786e-21)
(-0.0834737 0.0673295 -3.91853e-21)
(-0.109175 0.0659617 6.09677e-23)
(-0.106524 0.0700097 1.11105e-21)
(-0.0310141 0.0461789 4.01304e-21)
(-0.0474039 0.0556332 -3.8198e-23)
(-0.0662826 0.0613177 1.95402e-21)
(-0.00923246 0.0243546 1.74618e-21)
(-0.0228753 0.0391195 -2.12086e-21)
(-0.00517637 0.0159797 -1.56951e-21)
(-0.0135643 0.0190549 5.22423e-21)
(-0.0213319 0.0237032 0)
(-0.0042668 0.0075613 4.1111e-21)
(-0.00620256 0.00996919 -7.26787e-21)
(-0.00200386 0.00320136 0)
(-0.00229845 -0.00285091 0)
(-0.00427942 -0.00551881 -1.1634e-21)
(-0.0218238 0.0200344 5.25179e-21)
(-0.0334117 0.0215116 -1.12732e-23)
(-0.0334027 0.0147504 -1.08191e-20)
(-0.0506454 0.00815503 1.09319e-20)
(-0.0314564 -0.0175874 3.83965e-21)
(-0.0434891 -0.0160605 -3.11449e-21)
(-0.0386574 -0.00181194 -3.82729e-21)
(-0.0060972 -0.00638593 7.22142e-22)
(-0.0112709 -0.00976181 2.0521e-21)
(-0.0180616 -0.00868592 1.4177e-21)
(-0.00415501 0.0121605 -3.01426e-21)
(-0.0248162 0.0424204 0)
(-0.0522986 0.0545638 0)
(-0.0798973 0.0305258 3.95811e-21)
(-0.0930958 0.0468076 -2.76588e-21)
(-0.0860494 0.0569382 0)
(-0.0191442 0.00222005 3.13093e-23)
(-0.0537801 0.012584 0)
(-0.00851437 0.0265289 -1.02386e-22)
(-0.00150397 -0.00140717 -6.1207e-22)
(-0.000754709 -0.000413486 3.00995e-21)
(-0.00793064 0.0099055 7.50877e-21)
(-0.0123933 0.0129014 0)
(-0.00183692 0.00279366 -3.40484e-21)
(-0.00337282 0.00448514 -1.0814e-20)
(-0.000812126 0.000792339 5.96922e-21)
(-0.00217969 -0.0017911 4.2421e-22)
(-0.00555926 -0.00401075 0)
(-0.0137334 0.00850469 0)
(-0.0213872 0.00928884 0)
(-0.0235526 0.00114484 0)
(-0.00777421 -0.00318911 4.84111e-21)
(-0.0146322 -0.00453741 -4.13662e-21)
(-0.0164875 0.000403336 0)
(-0.00112866 0.00853206 0)
(-0.00181987 -0.00106274 2.73692e-21)
(-0.000128027 0.000207798 -6.86441e-21)
(-0.000361861 -6.24859e-05 1.19483e-20)
(-0.000707995 -0.000368824 -7.22175e-21)
(5.15289e-05 0.000198166 -2.35057e-21)
(7.54191e-05 0.000168823 0)
(-0.00356206 0.00354646 3.52954e-21)
(-0.00672264 0.00451239 0)
(-0.000560108 0.000359306 0)
(-0.0011132 0.0010599 0)
(-0.000242169 -0.000401693 -1.29965e-21)
(-0.0026246 -0.00111439 2.24762e-21)
(-0.00468765 -0.00134813 0)
(-0.00445887 0.000204996 6.79975e-21)
(-0.00567798 0.00282631 1.79747e-21)
(-0.00706909 0.0019602 -6.78117e-21)
(-0.00062161 -0.000226024 0)
(-0.00145765 -0.000331354 5.30608e-21)
(8.89137e-05 7.40204e-05 8.60641e-21)
(-0.000194943 -4.90584e-05 -9.76217e-21)
(0.000180135 8.08428e-05 -1.75261e-22)
(0.000216624 0.00010107 7.27064e-21)
(-0.000839238 0.000541725 1.45903e-21)
(-0.0016912 0.00106669 -1.09409e-21)
(0.000124906 -0.000693676 -8.40276e-21)
(4.73163e-05 -0.000550087 1.14818e-20)
(-0.000124758 -0.000199186 0)
(-0.00126776 7.32003e-05 -5.38555e-21)
(-0.00209992 0.000659539 -7.88234e-21)
(-0.00113801 0.000501488 1.16865e-20)
(-0.000936147 0.000544143 0)
(0.000309761 -0.000462727 0)
(0.000199619 -0.000322629 4.48011e-21)
(-0.000108825 6.96848e-05 3.37481e-21)
(-0.000411837 0.00015799 -5.98449e-21)
(0.000281437 8.03885e-05 -1.31292e-22)
(0.000185196 0.000107404 1.55126e-24)
(0.000387333 -0.000273793 0)
(0.000265826 -0.000126956 1.9594e-21)
(8.34409e-05 0.000193168 -1.69273e-21)
(2.69799e-05 0.000158936 -3.17223e-24)
(0.000242546 0.000106569 8.03437e-22)
(-0.000197533 0.000164687 6.35266e-21)
(0.000354972 -0.000118403 -5.93856e-21)
(0.000516774 -0.000163406 0)
(0.000380286 7.41103e-05 -8.8759e-21)
(0.000294094 0.000118759 4.23143e-21)
(0.000492688 6.34225e-05 4.5042e-21)
(0.000577598 -4.30197e-05 0)
(0.000444919 3.17677e-05 -4.93464e-21)
)
;

boundaryField
{
    movingWall
    {
        type            fixedValue;
        value           uniform (1 0 0);
    }
    fixedWalls
    {
        type            noSlip;
    }
    frontAndBack
    {
        type            empty;
    }
    defaultFaces
    {
        type            empty;
    }
}


// ************************************************************************* //
