/*--------------------------------*- C++ -*----------------------------------*\
  =========                 |
  \\      /  F ield         | OpenFOAM: The Open Source CFD Toolbox
   \\    /   O peration     | Website:  https://openfoam.org
    \\  /    A nd           | Version:  8
     \\/     M anipulation  |
\*---------------------------------------------------------------------------*/
FoamFile
{
    version     2.0;
    format      ascii;
    class       volVectorField;
    location    "0.015";
    object      U;
}
// * * * * * * * * * * * * * * * * * * * * * * * * * * * * * * * * * * * * * //

dimensions      [0 1 -1 0 0 0 0];

internalField   nonuniform List<vector> 
424
(
(-0.00281695 -0.000141387 6.76897e-26)
(-0.0135446 0.000921341 0)
(-0.0122705 0.00260317 2.08049e-23)
(0.000126298 0.00300626 -1.05461e-24)
(-0.0433594 0.00476134 -2.5144e-23)
(-0.0212626 0.00080596 -3.37557e-23)
(-0.00280895 0.0129082 2.90852e-24)
(-0.00095105 0.0142869 -4.9084e-25)
(-0.0628717 0.00243841 -3.59687e-23)
(-0.0238604 0.00029158 3.09853e-23)
(-0.0649762 0.00207616 9.33778e-23)
(-0.0223678 0.000417016 0)
(-0.00480379 0.0459537 1.32021e-24)
(-0.000913527 0.0225128 0)
(-0.0683246 0.000558673 3.28775e-23)
(-0.0237199 -4.19323e-05 1.74534e-23)
(-0.0545749 0.000641709 0)
(-0.0183136 7.33402e-05 0)
(-0.000338424 0.0250564 0)
(-0.00251845 0.0668119 -2.83922e-23)
(-0.0674382 2.62748e-05 3.48326e-23)
(-0.0238414 -0.000335217 -1.86929e-23)
(-0.0529403 0.000230376 0)
(-0.0182748 5.51538e-05 0)
(1.23701e-05 0.0241455 1.31367e-23)
(-0.000234817 0.0715681 2.56216e-23)
(-0.00213184 0.063493 -3.65682e-23)
(-0.000374638 0.0218096 -3.7889e-23)
(-0.0687471 -0.000365786 5.85464e-23)
(-0.021375 -0.000803535 0)
(-0.0138792 -0.000922705 -1.3056e-22)
(-0.00292785 0.000162985 0)
(-0.049022 -1.25473e-05 -1.05458e-22)
(-0.0168032 3.90809e-05 9.86142e-23)
(-0.0222043 0.0478783 6.84232e-23)
(0.000234864 0.02476 0)
(0.000105192 0.0276628 -2.26465e-22)
(0.00337883 0.0620168 2.33299e-22)
(7.65081e-05 0.0685824 2.80838e-23)
(-0.000408435 0.0556262 3.92344e-24)
(-1.10407e-05 0.0186686 -3.85107e-24)
(-0.0638746 -0.00239555 -1.04944e-22)
(-0.0448139 -0.00504326 1.32363e-22)
(-0.0132239 -0.00290502 0)
(0.000156209 -0.00322914 -2.96088e-22)
(-0.0458002 -0.000257186 3.47292e-22)
(-0.0151266 -3.12241e-05 0)
(-0.106259 0.151927 -1.89219e-22)
(0.809119 0.0278968 -5.04636e-23)
(-0.000664955 0.0716615 -1.62909e-23)
(-0.00593226 0.080398 0)
(-0.0053604 0.162705 -3.61207e-24)
(-0.000230306 0.0535836 0)
(-4.31041e-05 0.0185639 0)
(-0.00374891 -0.0142056 5.94775e-23)
(-0.00119591 -0.0157661 2.59006e-22)
(-0.0493602 -0.000580439 0)
(-0.0163613 -0.000140277 0)
(0.404828 0.118508 1.42297e-22)
(0.860161 -0.00379323 -1.20965e-23)
(0.000137069 0.0504682 -9.33027e-23)
(-9.60221e-06 0.0174871 8.84408e-23)
(-0.00618948 -0.0497584 0)
(-0.000987788 -0.0246912 0)
(0.547068 0.0125351 1.58741e-22)
(0.880681 -0.00216431 0)
(0.000362625 0.0478879 -8.03894e-23)
(9.22762e-05 0.0163597 7.39774e-23)
(-0.000327123 -0.0270984 6.01735e-23)
(-0.00281272 -0.0721093 -1.85711e-23)
(0.878589 -0.00129081 -1.35934e-23)
(0.619725 0.00193769 -1.17054e-22)
(-0.00234249 0.0517338 0)
(-0.000224952 0.0197322 0)
(7.83412e-05 -0.0267259 4.72021e-23)
(-0.000382597 -0.076474 1.90751e-23)
(-0.0017177 -0.0608981 -3.94293e-22)
(-0.000307542 -0.0208735 0)
(0.877114 -0.000318995 1.28419e-23)
(0.630206 -0.000722973 -5.03332e-23)
(0.826454 -0.0267974 0)
(0.000331645 -0.0265625 -9.08537e-23)
(0.879685 0.00140889 0)
(0.884768 0.00206173 0)
(0.864592 0.00376906 0)
(-0.0194762 -0.0488703 0)
(0.00358569 -0.0668904 -4.78792e-22)
(0.000130996 -0.0287112 5.9332e-22)
(0.000292269 -0.0752891 4.359e-23)
(-0.000509603 -0.0533502 0)
(-3.32889e-05 -0.01793 0)
(0.632804 -0.000733891 -2.07302e-23)
(-0.1094 0.00179082 -4.17343e-23)
(0.44631 -0.115007 9.64081e-22)
(-0.000474853 -0.0767465 -8.89844e-23)
(0.63497 0.00127793 -1.23472e-22)
(0.63681 -0.00127386 2.56775e-22)
(0.565564 -0.0105401 -1.24098e-21)
(-0.108697 -0.152697 -1.80412e-22)
(-0.00669118 -0.174404 6.98722e-22)
(-0.00672834 -0.0836017 -5.67267e-22)
(4.7619e-05 -0.0529986 -3.09092e-23)
(3.24373e-05 -0.0183461 2.99756e-23)
(-0.0974694 2.05603e-05 0)
(-0.0419247 -7.0404e-05 -4.0428e-23)
(0.00036736 -0.0549285 -1.38269e-22)
(5.77845e-05 -0.0190855 -1.3146e-22)
(-0.0997236 -0.000328853 2.37562e-23)
(-0.0351509 -3.31637e-06 0)
(-5.5765e-05 -0.0537598 9.94936e-23)
(8.58969e-05 -0.0186692 -9.48484e-23)
(-0.0930988 -0.000140444 -2.47128e-22)
(-0.0364605 -0.000113989 -2.24938e-23)
(-0.00310613 -0.0560117 0)
(-0.000257031 -0.0220808 0)
(-0.0859404 0.000339278 1.35121e-22)
(-0.0338437 -6.77538e-05 0)
(-0.0974915 -0.00153784 0)
(-0.0305086 -1.32903e-06 1.20869e-22)
(-0.0362886 -9.03187e-05 0)
(-0.0723969 0.0154456 2.51992e-24)
(-0.0217794 0.0107392 0)
(-0.0577818 0.0318594 0)
(-0.0109947 0.0228396 -1.65797e-24)
(-0.117943 0.097369 2.53507e-23)
(-0.142983 0.0674909 4.65992e-22)
(-0.0788357 0.124138 3.68561e-23)
(-0.0980273 0.106461 -1.17792e-23)
(-0.140622 0.0570863 -7.84236e-22)
(-0.145025 0.0341137 -2.57128e-23)
(-0.124878 0.0261272 -7.03435e-22)
(-0.111038 0.0261132 -1.91357e-22)
(-0.131866 0.0431459 -6.26728e-22)
(-0.149969 0.0464074 8.1862e-22)
(-0.15694 0.0223059 -5.89735e-22)
(-0.162988 0.0247296 1.06386e-22)
(-0.10171 0.00609839 1.80176e-22)
(-0.149924 0.00675421 1.22313e-21)
(-0.100443 0.00503549 2.56055e-22)
(-0.124154 0.00266264 3.34665e-22)
(-0.0331473 0.0585298 2.64048e-23)
(-0.0934672 0.102244 0)
(-0.0646119 0.0612586 -2.18571e-23)
(-0.0916146 0.082498 0)
(-0.0665577 0.125471 5.58201e-23)
(-0.0683289 0.134606 -1.43745e-22)
(-0.0173484 0.0782627 -6.82531e-25)
(-0.0456861 0.150057 2.18962e-22)
(-0.0638274 0.12259 -4.89604e-23)
(-0.0431111 0.14378 2.82742e-22)
(-0.0565217 0.0957565 -6.79053e-23)
(-0.0897219 0.0849369 -2.67115e-23)
(-0.100102 0.0609123 0)
(-0.0876379 0.0330568 1.20735e-22)
(-0.0215376 0.00222759 -2.91835e-22)
(-0.0604242 0.012953 3.36693e-22)
(-0.145053 0.00813061 0)
(-0.161874 0.00853047 0)
(-0.170085 0.00214783 -8.48926e-22)
(-0.113616 0.000692903 -1.53674e-21)
(-0.164281 0.00226414 2.77934e-21)
(-0.0937528 0.00143388 7.01689e-22)
(-0.131383 -0.000232197 7.36006e-22)
(-0.0314854 0.118623 -2.78323e-23)
(-0.0400847 0.138254 2.71111e-23)
(-0.0309448 0.161067 -2.35331e-22)
(-0.00584737 0.107301 7.90902e-22)
(-0.0188984 0.165318 1.16754e-22)
(-0.0237782 0.137778 4.9608e-23)
(-0.0135922 0.152766 -2.98002e-22)
(-0.0308282 0.0822454 1.78163e-22)
(-0.0189039 0.120661 -1.1511e-21)
(-0.0132046 0.0594294 0)
(-0.00224852 0.021229 0)
(-0.154007 -0.000827434 8.69779e-22)
(-0.169065 -9.50149e-05 -2.59393e-21)
(-0.116098 0.00064259 -9.17224e-22)
(-0.161723 0.00013146 2.90582e-21)
(-0.0917237 -4.00159e-05 -1.14907e-21)
(-0.132049 -0.000434655 1.43456e-21)
(-0.00511402 0.148751 -7.07318e-22)
(-0.00623168 0.165178 5.24393e-22)
(0.00100606 0.116915 0)
(-0.00452134 0.145504 0)
(-0.00170165 0.169777 -1.0563e-21)
(-0.00365691 0.0951085 7.85185e-22)
(-0.000391867 0.121785 0)
(-0.153881 0.00177935 8.71789e-22)
(-0.167336 0.00103399 2.00676e-22)
(-0.119502 0.000604767 1.2572e-21)
(-0.161191 -0.00169361 -1.91305e-21)
(-0.166229 -0.00319899 -2.01515e-21)
(-0.0883094 -0.000678033 -2.26438e-21)
(-0.124361 -0.000649798 9.84046e-22)
(0.00326797 0.152579 7.70292e-22)
(0.000836136 0.111896 -8.1568e-22)
(-0.000607399 0.164403 2.56264e-21)
(0.00191404 0.169396 -1.98055e-21)
(-0.000670463 0.0964088 0)
(0.00056572 0.132702 0)
(-0.146532 -0.00590254 -1.44633e-21)
(-0.163979 -0.00828599 0)
(-0.163027 -0.0250671 1.76377e-21)
(-0.103623 -0.00595145 1.05248e-21)
(-0.153675 -0.0321927 -1.96445e-21)
(-0.155376 -0.0299397 -3.24523e-21)
(-0.140921 -0.00681059 1.95983e-21)
(-0.146761 -0.0221059 1.79042e-21)
(-0.0876873 -0.000764416 -2.94635e-22)
(-0.112319 0.000325583 0)
(-0.00025591 0.152304 -4.30325e-22)
(-0.00383751 0.120673 0)
(0.000899081 0.163131 0)
(-0.000264162 0.16777 3.29204e-22)
(-3.98081e-05 0.090903 0)
(0.00161007 0.131253 0)
(-0.135545 -0.0597565 0)
(-0.146833 -0.0529379 -2.15941e-21)
(-0.146675 -0.0564347 2.91689e-21)
(-0.122782 -0.0796364 0)
(-0.0714125 -0.0147154 0)
(-0.115103 -0.0250939 -1.21412e-21)
(-0.132055 -0.0318788 -2.27705e-21)
(-0.120966 -0.0623662 2.79556e-21)
(-0.132151 -0.0743475 -1.47683e-22)
(-0.0587173 -0.0306084 -6.99852e-22)
(-0.022915 -0.0108039 0)
(-0.0125031 -0.0236311 2.14793e-21)
(-0.125101 -0.0306135 7.40249e-22)
(-0.128927 -0.0518974 -1.83864e-21)
(-0.0801242 -0.00138004 -1.3071e-21)
(-0.108653 -0.0245209 1.8678e-21)
(-0.107892 -0.0660203 8.6262e-22)
(-0.110941 -0.0808888 0)
(-0.0957659 -0.0936242 1.57209e-21)
(-0.0321294 0.227047 3.18753e-24)
(-0.132112 0.293447 -2.99128e-21)
(-0.14248 0.221922 3.13709e-21)
(0.116621 0.18559 -2.5372e-21)
(-0.0160454 0.156014 1.44424e-21)
(-0.0184993 0.128387 -1.74874e-21)
(-0.0512807 0.195374 -8.9372e-22)
(-0.0173276 0.166098 -3.09006e-21)
(0.00071485 0.160015 -7.95196e-22)
(-0.00786516 0.163722 3.206e-21)
(0.0010713 0.0864868 0)
(0.00206973 0.12259 2.92192e-22)
(-0.0671483 0.184781 4.2451e-21)
(-0.1084 0.180039 -1.323e-21)
(-0.0982382 -0.108715 4.14795e-21)
(-0.11662 -0.0951053 2.47327e-21)
(-0.114602 -0.0971201 -3.32569e-21)
(-0.0696193 -0.0558077 5.31199e-22)
(-0.0871727 -0.108912 0)
(-0.0920659 -0.0778449 2.47426e-22)
(-0.0345132 -0.057143 -3.00222e-21)
(-0.0775277 -0.128643 -5.83865e-21)
(-0.0204028 -0.0805399 0)
(-0.0640052 -0.129759 2.05013e-21)
(-0.0455161 -0.145598 0)
(-0.072979 -0.0252966 3.18827e-21)
(-0.088465 -0.0570718 0)
(-0.0554354 -0.0976358 -4.67509e-21)
(-0.0794888 -0.0871651 1.13937e-21)
(-0.0160493 -0.00132597 1.37036e-21)
(-0.047006 -0.00871441 -5.49517e-21)
(-0.11316 0.231467 -5.35529e-22)
(-0.138245 0.193183 0)
(0.00382524 0.191212 1.98036e-21)
(-0.148274 0.101473 -1.29964e-21)
(0.257004 0.0553633 9.65961e-22)
(-0.0291706 0.162886 2.02371e-21)
(-0.052605 0.161849 -2.28057e-21)
(-0.00900489 0.135938 -1.68034e-21)
(-0.020206 0.137752 2.89868e-21)
(0.000714671 0.0840325 1.35484e-21)
(-0.00653512 0.107673 -8.95641e-22)
(-0.169963 0.0139175 0)
(-0.118045 0.113816 -1.92485e-21)
(-0.152035 0.0789136 1.07421e-22)
(-0.159257 0.0405965 3.15457e-21)
(-0.0586672 0.123676 -1.23368e-21)
(-0.0933101 0.101373 1.20195e-21)
(-0.0573026 -0.133032 2.24896e-22)
(-0.0571459 -0.146967 5.05312e-22)
(-0.043067 -0.156569 0)
(-0.0339809 -0.115464 -2.83954e-22)
(-0.0078119 -0.117405 1.90156e-23)
(-0.0258128 -0.161477 -3.58131e-21)
(-0.0281077 -0.141082 1.82969e-21)
(-0.0193991 -0.152148 -2.02437e-21)
(-0.0305236 -0.0853632 3.19604e-21)
(-0.0223713 -0.120885 -2.64791e-21)
(-0.0115463 -0.0563079 0)
(-0.00200688 -0.0197888 0)
(-0.0676503 0.0536918 -4.57652e-22)
(-0.131094 0.0237585 1.65185e-21)
(0.0928503 0.0574526 -6.78421e-22)
(0.364255 0.0169725 1.694e-21)
(-0.140837 0.0145533 0)
(-0.188083 0.00891393 0)
(-0.0187853 0.105896 -2.10148e-21)
(-0.0374805 0.101312 0)
(-0.176573 -0.00747317 0)
(-0.174352 -0.00222647 0)
(-0.00710294 0.0783442 0)
(-0.00784185 0.0867691 -9.55037e-22)
(-0.133659 -0.00084271 0)
(-0.132421 0.0257735 -3.19639e-21)
(-0.0493361 0.0539547 0)
(-0.0900164 0.0575651 0)
(-0.105489 0.031702 2.70921e-21)
(-0.160597 -0.0130404 5.68518e-22)
(-0.0111194 -0.164319 2.50741e-21)
(-0.0104861 -0.151187 0)
(0.000209909 -0.122834 -4.0134e-23)
(-0.00659052 -0.144726 0)
(-0.00321706 -0.168368 0)
(-0.00413586 -0.0937674 -3.50212e-21)
(-0.00251514 -0.120593 3.19473e-21)
(-0.0620663 0.0163749 0)
(0.108803 0.0119229 -1.40502e-21)
(0.363812 0.00263779 0)
(-0.196988 0.00381622 -4.72012e-22)
(-0.171216 0.00885489 1.51102e-23)
(-0.150486 0.00516434 -2.52212e-22)
(-0.184127 0.00592379 1.31232e-22)
(-0.00644729 0.0251178 5.5109e-21)
(-0.0366963 0.0184687 -1.03278e-21)
(-0.0762136 0.00563457 -2.12993e-21)
(-0.0887421 -0.0166721 0)
(-0.0900819 -0.00851128 0)
(0.000158506 0.00781864 1.73645e-21)
(-0.000817621 0.019096 -6.54693e-21)
(-0.0677951 -0.00650233 0)
(0.00181767 -0.157864 -5.43198e-22)
(0.000384986 -0.122624 3.97826e-23)
(-0.0017429 -0.162399 -4.61963e-21)
(0.00103085 -0.168896 4.29714e-21)
(-0.00135578 -0.0915277 0)
(0.000263566 -0.130185 -5.34353e-22)
(0.0825208 -0.00244308 0)
(0.351759 -0.00154697 0)
(-0.184365 -0.00163402 4.17885e-22)
(-0.111356 -0.00183803 -3.58351e-22)
(-0.156667 0.000236522 3.34365e-22)
(-0.195082 0.00677931 -5.48871e-22)
(-0.0259473 -0.00101654 0)
(0.128651 -0.185086 -5.74969e-21)
(-0.151587 -0.224325 9.80607e-21)
(-0.000358707 -0.155985 1.67049e-22)
(-0.00329891 -0.124731 0)
(0.000969347 -0.162 3.94498e-21)
(-0.000412591 -0.167853 -2.87543e-21)
(0.000583422 -0.0890139 0)
(0.0022497 -0.134825 -1.0276e-21)
(0.0744151 -0.000441992 -3.82105e-23)
(0.345636 -0.00337285 -2.08836e-21)
(-0.206218 -0.00305038 -2.12702e-21)
(-0.120114 -0.000550102 -6.1888e-22)
(-0.159578 0.00165299 5.25537e-22)
(-0.202786 -0.00175277 0)
(0.259575 -0.0515428 -6.95048e-21)
(0.0195458 -0.163068 -6.39592e-21)
(-0.0151891 -0.156969 0)
(-0.0198556 -0.132123 0)
(0.115464 -0.00794683 -3.05753e-21)
(0.372083 -0.0151198 2.60087e-21)
(0.116401 -0.0565121 1.15648e-20)
(-0.0572666 -0.198995 0)
(-0.119946 -0.212793 9.17394e-21)
(-0.0369843 -0.24173 1.59857e-21)
(-0.151435 -0.299314 -2.59024e-21)
(-0.0707446 -0.179733 -6.4873e-24)
(-0.0156422 -0.165615 -3.83509e-21)
(0.000274638 -0.16106 1.64855e-21)
(-0.00646427 -0.163398 6.0689e-21)
(0.00113471 -0.0978093 -3.64164e-21)
(0.000284893 -0.132298 2.36461e-21)
(-0.0655665 -0.0135573 2.44484e-21)
(-0.186308 0.00249461 3.70889e-21)
(-0.182188 -0.0058753 -3.35836e-21)
(-0.151238 7.82431e-05 2.47089e-22)
(-0.18572 -0.00011234 0)
(-0.0765261 -0.0613648 -3.83788e-21)
(-0.157909 -0.164571 -2.62286e-21)
(-0.0478118 -0.158838 -6.38325e-21)
(-0.0287598 -0.159925 7.54735e-22)
(-0.143546 -0.013009 0)
(-0.131289 -0.0243373 -9.93734e-22)
(-0.139678 -0.162298 -6.72749e-21)
(-0.0957446 -0.164282 8.67752e-21)
(-0.0798903 -0.117011 6.37568e-21)
(-0.0557786 -0.124928 0)
(-0.00803765 -0.129908 0)
(-0.0190631 -0.133084 -2.50955e-21)
(-0.00132984 -0.0912295 0)
(-0.00764517 -0.110894 0)
(-0.200401 0.000497726 2.80503e-21)
(-0.191798 -0.00354479 -5.41289e-21)
(-0.143724 0.00222446 -2.60238e-22)
(-0.178678 -0.00294753 -1.58649e-21)
(-0.168746 -0.0132164 5.15017e-21)
(-0.158309 -0.0642219 -4.45186e-21)
(-0.021007 -0.104575 1.50675e-21)
(-0.0383663 -0.102626 3.61787e-21)
(-0.185786 0.00716978 4.43649e-21)
(-0.167612 0.00706383 -1.78341e-22)
(-0.0483935 -0.0542982 -7.98924e-21)
(-0.0834604 -0.0677016 3.83918e-22)
(-0.1176 -0.0534799 1.41862e-21)
(-0.00758929 -0.0767078 0)
(-0.010016 -0.0843303 -2.74963e-21)
(-0.144256 -0.00438708 -2.14698e-21)
(-0.167719 0.00995885 1.52041e-21)
(-0.0942318 0.0188398 1.42063e-21)
(-0.00890199 -0.0219656 0)
(-0.0383138 -0.0138934 3.55318e-21)
(-0.110646 0.01548 1.5991e-22)
(-0.100604 -0.00292621 0)
(-1.67903e-05 -0.0081318 0)
(-0.00205849 -0.0187477 0)
(-0.0651435 0.00747662 -3.72573e-21)
(-0.0238912 0.00125752 2.93229e-21)
)
;

boundaryField
{
    movingWall
    {
        type            fixedValue;
        value           uniform (1 0 0);
    }
    fixedWalls
    {
        type            noSlip;
    }
    frontAndBack
    {
        type            empty;
    }
    defaultFaces
    {
        type            empty;
    }
}


// ************************************************************************* //
