/*--------------------------------*- C++ -*----------------------------------*\
  =========                 |
  \\      /  F ield         | OpenFOAM: The Open Source CFD Toolbox
   \\    /   O peration     | Website:  https://openfoam.org
    \\  /    A nd           | Version:  8
     \\/     M anipulation  |
\*---------------------------------------------------------------------------*/
FoamFile
{
    version     2.0;
    format      ascii;
    class       volVectorField;
    location    "0.073";
    object      U;
}
// * * * * * * * * * * * * * * * * * * * * * * * * * * * * * * * * * * * * * //

dimensions      [0 1 -1 0 0 0 0];

internalField   nonuniform List<vector> 
424
(
(-0.00293619 -0.000189979 6.80969e-26)
(-0.0146518 0.000961568 0)
(-0.0131022 0.00276779 2.0459e-23)
(0.000179592 0.00315104 -1.16706e-24)
(-0.0473542 0.00514737 -2.47649e-23)
(-0.0230453 0.000844531 -3.38782e-23)
(-0.00299438 0.0138301 3.23453e-24)
(-0.000995351 0.0155058 -7.93702e-25)
(-0.0687371 0.0025947 -3.61311e-23)
(-0.0257657 0.000296802 3.10977e-23)
(-0.0703247 0.00228284 9.63775e-23)
(-0.0240384 0.000465974 0)
(-0.00519768 0.0503247 1.16762e-24)
(-0.000963641 0.0244883 0)
(-0.0744413 0.000564813 3.30261e-23)
(-0.0255816 -4.07927e-05 1.7511e-23)
(-0.0590501 0.00068921 0)
(-0.0196485 7.81006e-05 0)
(-0.000341381 0.0271137 0)
(-0.0026769 0.0732636 -2.78438e-23)
(-0.0734037 4.81199e-05 3.49546e-23)
(-0.0258212 -0.000338612 -1.87546e-23)
(-0.0573208 0.000236501 0)
(-0.0196377 5.60107e-05 0)
(1.31927e-05 0.0260439 1.30696e-23)
(-0.000172612 0.078134 2.51266e-23)
(-0.00233365 0.0684522 -3.74646e-23)
(-0.000418213 0.0233105 -3.89039e-23)
(-0.0750852 -0.000327191 5.88743e-23)
(-0.0232413 -0.000848002 0)
(-0.0150334 -0.000969409 -1.31698e-22)
(-0.00303882 0.000215703 0)
(-0.0530527 -1.92087e-05 -1.05688e-22)
(-0.0180554 3.82496e-05 9.88299e-23)
(-0.0222842 0.0479302 6.83822e-23)
(0.00023987 0.0268005 0)
(0.000145874 0.0295881 -2.27069e-22)
(0.00335076 0.0631452 2.33922e-22)
(8.24666e-05 0.0746648 2.79496e-23)
(-0.000419353 0.0601149 3.92269e-24)
(-6.77658e-06 0.0199986 -3.85034e-24)
(-0.0699958 -0.00256858 -1.05446e-22)
(-0.0489918 -0.00549405 1.33518e-22)
(-0.0141027 -0.00310151 0)
(0.000224053 -0.00336415 -2.95519e-22)
(-0.0494745 -0.000265431 3.47e-22)
(-0.0162227 -3.37421e-05 0)
(-0.106049 0.152678 -1.89065e-22)
(0.809203 0.0278417 -5.01857e-23)
(-0.000696191 0.0781772 -1.62202e-23)
(-0.00573086 0.0866572 0)
(-0.0050736 0.166849 -3.61595e-24)
(-0.000244497 0.0579447 0)
(-4.43906e-05 0.0199179 0)
(-0.00400044 -0.0151979 5.94384e-23)
(-0.00125642 -0.017069 2.58428e-22)
(-0.0531159 -0.000629303 0)
(-0.0174757 -0.000155195 0)
(0.405639 0.118729 1.41483e-22)
(0.861377 -0.0037885 -1.19167e-23)
(0.000144675 0.0544636 -9.27307e-23)
(-8.89677e-06 0.0187229 8.78986e-23)
(-0.00671231 -0.0544267 0)
(-0.00104169 -0.0268095 0)
(0.551438 0.0129208 1.56435e-22)
(0.88273 -0.00213942 0)
(0.000408094 0.0516094 -7.97506e-23)
(9.87651e-05 0.0174752 7.33894e-23)
(-0.000335116 -0.0292964 6.02646e-23)
(-0.00298279 -0.0790284 -1.8595e-23)
(0.880718 -0.00128592 -1.38275e-23)
(0.626376 0.00206132 -1.15916e-22)
(-0.00228604 0.0558792 0)
(-0.000204679 0.020985 0)
(7.71725e-05 -0.0288866 4.72764e-23)
(-0.00036627 -0.0834859 1.91047e-23)
(-0.00189937 -0.0659007 -3.97208e-22)
(-0.000343529 -0.0224365 0)
(0.879096 -0.000317034 1.30631e-23)
(0.637003 -0.000768024 -4.91213e-23)
(0.826678 -0.0267488 0)
(0.000338163 -0.0288249 -9.09959e-23)
(0.881773 0.0014074 0)
(0.886711 0.00204225 0)
(0.865839 0.00377292 0)
(-0.019522 -0.0491256 0)
(0.00355482 -0.068308 -4.80776e-22)
(0.000174786 -0.0308334 5.95671e-22)
(0.0002906 -0.0821758 4.36575e-23)
(-0.000559853 -0.0577265 0)
(-3.69174e-05 -0.0192445 0)
(0.639155 -0.000725827 -2.08442e-23)
(-0.104737 0.00186896 -4.20518e-23)
(0.447584 -0.115196 9.64675e-22)
(-0.000518003 -0.0839575 -8.91268e-23)
(0.64164 0.00131801 -1.2372e-22)
(0.643163 -0.00139841 2.57371e-22)
(0.570045 -0.0108389 -1.24185e-21)
(-0.1084 -0.154019 -1.80905e-22)
(-0.00644847 -0.179397 7.0105e-22)
(-0.00653528 -0.0905114 -5.692e-22)
(5.5246e-05 -0.0573286 -3.09733e-23)
(3.51701e-05 -0.0196927 3.00378e-23)
(-0.0932062 5.79576e-05 0)
(-0.0405077 -4.34249e-05 -4.09738e-23)
(0.000387543 -0.0594257 -1.38401e-22)
(6.08694e-05 -0.0204907 -1.31588e-22)
(-0.0956117 -0.000318151 2.40233e-23)
(-0.0338641 6.27731e-06 0)
(-6.40213e-05 -0.0579796 9.9537e-23)
(8.55219e-05 -0.0199459 -9.489e-23)
(-0.0893462 -0.000141652 -2.48828e-22)
(-0.0351834 -0.000111243 -2.27467e-23)
(-0.00299846 -0.0605828 0)
(-0.000220443 -0.0234977 0)
(-0.0824079 0.000297724 1.35986e-22)
(-0.0326825 -6.7175e-05 0)
(-0.0935483 -0.00161888 0)
(-0.0294519 -9.4649e-06 1.2164e-22)
(-0.0350902 -0.000114697 0)
(-0.0797306 0.0171036 2.51291e-24)
(-0.0236557 0.0118479 0)
(-0.0636796 0.035236 0)
(-0.0121545 0.0248781 -1.84925e-24)
(-0.129974 0.10708 2.70473e-23)
(-0.157664 0.0741213 4.7713e-22)
(-0.0864174 0.136104 3.60172e-23)
(-0.107476 0.116587 -1.33053e-23)
(-0.154486 0.0625094 -8.02896e-22)
(-0.159257 0.0373125 -2.63917e-23)
(-0.136497 0.0285383 -7.20596e-22)
(-0.122899 0.0288304 -1.92552e-22)
(-0.146443 0.0477387 -6.42756e-22)
(-0.166189 0.0511768 8.39098e-22)
(-0.17306 0.0243198 -6.00135e-22)
(-0.180486 0.0268215 1.08107e-22)
(-0.112012 0.00669853 1.81302e-22)
(-0.165207 0.00739663 1.24483e-21)
(-0.10943 0.00549303 2.62642e-22)
(-0.136143 0.00295634 3.40125e-22)
(-0.0367943 0.0645056 2.98989e-23)
(-0.103695 0.113233 0)
(-0.0718229 0.0680857 -2.47494e-23)
(-0.101901 0.0915927 0)
(-0.0735678 0.138993 5.30013e-23)
(-0.0750845 0.148144 -1.36489e-22)
(-0.0193361 0.086385 -2.9688e-25)
(-0.0501178 0.165077 2.19496e-22)
(-0.0697579 0.133917 -4.78444e-23)
(-0.0472388 0.157526 2.86959e-22)
(-0.0615897 0.103858 -5.76561e-23)
(-0.0975224 0.092257 -2.77361e-23)
(-0.108763 0.0662119 0)
(-0.0950879 0.0359801 1.22422e-22)
(-0.0232884 0.00244741 -2.99279e-22)
(-0.0654519 0.014152 3.4528e-22)
(-0.160687 0.0087083 0)
(-0.179705 0.00904294 0)
(-0.188159 0.00221191 -8.6363e-22)
(-0.124781 0.00072284 -1.54643e-21)
(-0.181812 0.00212986 2.80047e-21)
(-0.102246 0.00153799 7.08783e-22)
(-0.144516 -0.000259788 7.396e-22)
(-0.0349217 0.131603 -2.11283e-23)
(-0.0443201 0.153549 2.05808e-23)
(-0.0339297 0.178056 -2.34688e-22)
(-0.00640137 0.118413 7.74662e-22)
(-0.020474 0.182825 1.15941e-22)
(-0.026038 0.150757 4.82126e-23)
(-0.0147846 0.168125 -3.00197e-22)
(-0.033577 0.0890465 1.67352e-22)
(-0.020628 0.131574 -1.1726e-21)
(-0.0144271 0.0642282 0)
(-0.0024698 0.0228899 0)
(-0.170574 -0.000968518 8.75416e-22)
(-0.187703 -0.000297696 -2.6118e-21)
(-0.127499 0.000711327 -9.19979e-22)
(-0.178978 0.000117985 2.91444e-21)
(-0.100095 -4.62377e-05 -1.15726e-21)
(-0.145374 -0.000447478 1.43859e-21)
(-0.00533167 0.164865 -6.92788e-22)
(-0.00649973 0.183316 5.23059e-22)
(0.00121429 0.128619 0)
(-0.00490267 0.160075 0)
(-0.00167916 0.187759 -1.05472e-21)
(-0.00396849 0.103315 8.01921e-22)
(-0.00037595 0.133324 0)
(-0.170377 0.00217813 8.74406e-22)
(-0.185664 0.00138093 1.97118e-22)
(-0.131549 0.000716756 1.261e-21)
(-0.178103 -0.00155614 -1.91413e-21)
(-0.183748 -0.00332107 -2.01379e-21)
(-0.0963161 -0.000686805 -2.2691e-21)
(-0.136438 -0.000602639 9.84812e-22)
(0.00381292 0.168852 7.66842e-22)
(0.000864423 0.122816 -8.12006e-22)
(-0.000312801 0.181905 2.55929e-21)
(0.00248006 0.187938 -1.97769e-21)
(-0.000652053 0.10507 0)
(0.000628252 0.145953 0)
(-0.16226 -0.00625042 -1.45071e-21)
(-0.181822 -0.00877901 0)
(-0.180356 -0.0274049 1.76531e-21)
(-0.114263 -0.0065287 1.05928e-21)
(-0.170277 -0.0355164 -1.96641e-21)
(-0.171151 -0.0328453 -3.24545e-21)
(-0.154728 -0.0074072 1.9586e-21)
(-0.161118 -0.0241939 1.79043e-21)
(-0.0954466 -0.00073066 -2.94384e-22)
(-0.122673 0.000427541 0)
(-0.000571238 0.16887 -4.27419e-22)
(-0.00393656 0.132693 0)
(0.00113355 0.18057 0)
(-0.000381204 0.186293 3.26983e-22)
(-6.54072e-05 0.0991014 0)
(0.00167034 0.144385 0)
(-0.14856 -0.0653394 0)
(-0.16166 -0.0580377 -2.16169e-21)
(-0.16201 -0.0621504 2.91989e-21)
(-0.134404 -0.0871548 0)
(-0.0786432 -0.0163423 0)
(-0.127566 -0.0277469 -1.22211e-21)
(-0.146685 -0.0352262 -2.28637e-21)
(-0.134199 -0.069146 2.80831e-21)
(-0.146142 -0.0820297 -1.4793e-22)
(-0.0647438 -0.0339409 -7.03439e-22)
(-0.0248709 -0.0119633 0)
(-0.0137939 -0.0257313 2.1484e-21)
(-0.136467 -0.0334223 7.37918e-22)
(-0.140752 -0.0566619 -1.83379e-21)
(-0.0868067 -0.00147801 -1.29961e-21)
(-0.118178 -0.0266904 1.85713e-21)
(-0.117376 -0.0719265 8.61229e-22)
(-0.121009 -0.0882647 0)
(-0.10434 -0.102067 1.57276e-21)
(-0.0302056 0.23487 3.19097e-24)
(-0.128205 0.299477 -2.98934e-21)
(-0.141198 0.2238 3.13432e-21)
(0.118559 0.18675 -2.51993e-21)
(-0.0154481 0.171946 1.44027e-21)
(-0.017791 0.139173 -1.74392e-21)
(-0.0481465 0.207907 -8.93422e-22)
(-0.0168485 0.183935 -3.07493e-21)
(0.000772246 0.176797 -7.87753e-22)
(-0.00789494 0.181161 3.18217e-21)
(0.00109408 0.0941231 0)
(0.00223926 0.134325 2.89812e-22)
(-0.0626417 0.199767 4.23153e-21)
(-0.0997096 0.192641 -1.31935e-21)
(-0.107517 -0.119146 4.15216e-21)
(-0.128711 -0.104841 2.47839e-21)
(-0.125951 -0.106706 -3.33255e-21)
(-0.0773403 -0.0621151 5.33919e-22)
(-0.096495 -0.12079 0)
(-0.102259 -0.0866767 2.48066e-22)
(-0.0382321 -0.062916 -3.0029e-21)
(-0.0847174 -0.141331 -5.8435e-21)
(-0.022688 -0.0888575 0)
(-0.0698204 -0.142166 2.05127e-21)
(-0.0496993 -0.159881 0)
(-0.0788905 -0.0274554 3.18105e-21)
(-0.0957392 -0.0620445 0)
(-0.0602283 -0.106028 -4.67064e-21)
(-0.0861531 -0.0946125 1.13909e-21)
(-0.0172817 -0.00145212 1.35887e-21)
(-0.0507189 -0.00948884 -5.47204e-21)
(-0.105471 0.238429 -5.3455e-22)
(-0.127767 0.202609 0)
(0.00997031 0.194911 1.96852e-21)
(-0.135429 0.109098 -1.29744e-21)
(0.264746 0.0573689 9.5798e-22)
(-0.0273375 0.180241 2.01689e-21)
(-0.0485782 0.178458 -2.2714e-21)
(-0.00850191 0.150349 -1.66483e-21)
(-0.0187021 0.153296 2.87486e-21)
(0.000855231 0.091368 1.34303e-21)
(-0.00632759 0.118252 -8.88799e-22)
(-0.155133 0.0189388 0)
(-0.108123 0.12607 -1.91578e-21)
(-0.139493 0.0884257 1.08995e-22)
(-0.146371 0.0485663 3.14564e-21)
(-0.053044 0.137958 -1.22836e-21)
(-0.085012 0.113887 1.19671e-21)
(-0.063409 -0.147591 2.24966e-22)
(-0.0629143 -0.162588 5.0555e-22)
(-0.0471747 -0.172969 0)
(-0.0377278 -0.127871 -2.84041e-22)
(-0.00865069 -0.129641 1.90402e-23)
(-0.027993 -0.17866 -3.58784e-21)
(-0.0307183 -0.154784 1.83877e-21)
(-0.0212036 -0.167536 -2.03165e-21)
(-0.0332071 -0.0926031 3.19133e-21)
(-0.0244242 -0.132067 -2.661e-21)
(-0.0126079 -0.0609822 0)
(-0.00220219 -0.0213961 0)
(-0.0530322 0.0573304 -4.54546e-22)
(-0.113842 0.0269361 1.63242e-21)
(0.105244 0.0607369 -6.68003e-22)
(0.375438 0.0176542 1.67354e-21)
(-0.123021 0.0162643 0)
(-0.172585 0.0106473 0)
(-0.016314 0.119147 -2.08482e-21)
(-0.0331332 0.114457 0)
(-0.1636 -0.00422749 0)
(-0.160855 0.0021584 0)
(-0.00694392 0.0859429 0)
(-0.00615627 0.0972061 -9.49258e-22)
(-0.123093 0.00538991 0)
(-0.121485 0.0338187 -3.18304e-21)
(-0.0434866 0.0642307 0)
(-0.0821238 0.0683782 0)
(-0.096582 0.040658 2.69348e-21)
(-0.150183 -0.0106026 5.67793e-22)
(-0.0119626 -0.18239 2.51299e-21)
(-0.0113695 -0.167615 0)
(0.000252539 -0.135174 -4.01938e-23)
(-0.00728731 -0.159289 0)
(-0.00351152 -0.186133 0)
(-0.00453408 -0.102099 -3.52123e-21)
(-0.00281876 -0.13214 3.21294e-21)
(-0.044129 0.0167195 0)
(0.124825 0.0123441 -1.38808e-21)
(0.375685 0.0025508 0)
(-0.182734 0.00432339 -4.68447e-22)
(-0.153123 0.00878666 1.18175e-23)
(-0.14265 0.00537145 -2.50514e-22)
(-0.172595 0.0059982 1.30656e-22)
(-0.00425818 0.031463 5.48589e-21)
(-0.0320768 0.0259299 -1.03255e-21)
(-0.0693677 0.0123277 -2.11791e-21)
(-0.0823764 -0.0142287 0)
(-0.0825957 -0.00359541 0)
(0.000298151 0.00911743 1.72036e-21)
(-2.30671e-05 0.02299 -6.50311e-21)
(-0.063499 -0.00552318 0)
(0.00202322 -0.175049 -5.44289e-22)
(0.000380843 -0.134964 3.98484e-23)
(-0.00164376 -0.179629 -4.63203e-21)
(0.00125192 -0.18752 4.30827e-21)
(-0.00146793 -0.0997882 0)
(0.000229455 -0.143152 -5.35959e-22)
(0.0990895 -0.00268342 0)
(0.36331 -0.00154232 0)
(-0.166801 -0.00193051 4.27487e-22)
(-0.092798 -0.00224097 -3.649e-22)
(-0.148396 0.000225628 3.31492e-22)
(-0.182009 0.00674319 -5.56589e-22)
(-0.0244861 -0.000849055 0)
(0.131224 -0.186401 -5.76534e-21)
(-0.150136 -0.226961 9.8275e-21)
(-0.000619236 -0.173001 1.67242e-22)
(-0.00342858 -0.137471 0)
(0.000955005 -0.179216 3.94843e-21)
(-0.000664137 -0.186341 -2.87809e-21)
(0.000625311 -0.0970335 0)
(0.00241492 -0.14832 -1.02843e-21)
(0.0909786 -0.000121669 -3.84592e-23)
(0.357839 -0.00326454 -2.0955e-21)
(-0.189025 -0.00314945 -2.14092e-21)
(-0.101897 -0.000177978 -6.25797e-22)
(-0.151642 0.00168137 5.3287e-22)
(-0.189761 -0.00175636 0)
(0.26764 -0.0533252 -6.96173e-21)
(0.0263767 -0.166609 -6.40574e-21)
(-0.0150106 -0.173315 0)
(-0.0192394 -0.143804 0)
(0.131364 -0.00836374 -3.06327e-21)
(0.383162 -0.0157357 2.61087e-21)
(0.128936 -0.0594232 1.15832e-20)
(-0.0540541 -0.212808 0)
(-0.112196 -0.21981 9.19459e-21)
(-0.0350487 -0.250747 1.60225e-21)
(-0.147576 -0.306095 -2.59642e-21)
(-0.0665408 -0.195534 -1.80313e-23)
(-0.0153806 -0.183521 -3.8379e-21)
(0.00021083 -0.178013 1.65009e-21)
(-0.00636362 -0.180813 6.07317e-21)
(0.00117435 -0.106712 -3.64512e-21)
(0.000157375 -0.14525 2.36684e-21)
(-0.0479185 -0.013828 2.45577e-21)
(-0.169381 0.00266199 3.73795e-21)
(-0.164812 -0.0056577 -3.37346e-21)
(-0.143885 7.09734e-05 2.4879e-22)
(-0.174277 -0.000250852 0)
(-0.061654 -0.0658544 -3.84541e-21)
(-0.147685 -0.173656 -2.63116e-21)
(-0.0446734 -0.175861 -6.38867e-21)
(-0.0270795 -0.177151 7.55009e-22)
(-0.126362 -0.0150686 0)
(-0.114878 -0.028625 -9.97054e-22)
(-0.130299 -0.173508 -6.74511e-21)
(-0.0889197 -0.178283 8.70802e-21)
(-0.0734751 -0.131087 6.39505e-21)
(-0.0510672 -0.140298 0)
(-0.00744736 -0.143664 0)
(-0.0175687 -0.147976 -2.51028e-21)
(-0.00140215 -0.099275 0)
(-0.00755865 -0.121875 0)
(-0.186495 0.00012232 2.82187e-21)
(-0.17704 -0.00531115 -5.44352e-21)
(-0.136608 0.00214879 -2.61903e-22)
(-0.168413 -0.00295498 -1.59655e-21)
(-0.155215 -0.0198196 5.1663e-21)
(-0.14763 -0.0742889 -4.46188e-21)
(-0.0183613 -0.11765 1.505e-21)
(-0.0341596 -0.116473 3.62302e-21)
(-0.173421 0.0044223 4.46161e-21)
(-0.155498 0.00194264 -1.78856e-22)
(-0.0429288 -0.0654231 -8.00969e-21)
(-0.0769091 -0.078633 3.85607e-22)
(-0.109517 -0.0626804 1.41767e-21)
(-0.00735672 -0.0840865 0)
(-0.00803396 -0.0946635 -2.74651e-21)
(-0.13721 -0.00455774 -2.16307e-21)
(-0.157898 0.00805703 1.53813e-21)
(-0.0879529 0.016649 1.42689e-21)
(-0.00658596 -0.0285014 0)
(-0.0340091 -0.0216156 3.56602e-21)
(-0.102338 0.0107558 1.60376e-22)
(-0.0931708 -0.00936055 0)
(0.000154856 -0.00962593 0)
(-0.00109533 -0.0231275 0)
(-0.0611997 0.00665173 -3.74766e-21)
(-0.0225739 0.00111855 2.94955e-21)
)
;

boundaryField
{
    movingWall
    {
        type            fixedValue;
        value           uniform (1 0 0);
    }
    fixedWalls
    {
        type            noSlip;
    }
    frontAndBack
    {
        type            empty;
    }
    defaultFaces
    {
        type            empty;
    }
}


// ************************************************************************* //
