/*--------------------------------*- C++ -*----------------------------------*\
  =========                 |
  \\      /  F ield         | OpenFOAM: The Open Source CFD Toolbox
   \\    /   O peration     | Website:  https://openfoam.org
    \\  /    A nd           | Version:  8
     \\/     M anipulation  |
\*---------------------------------------------------------------------------*/
FoamFile
{
    version     2.0;
    format      ascii;
    class       volScalarField;
    location    "0.002";
    object      p;
}
// * * * * * * * * * * * * * * * * * * * * * * * * * * * * * * * * * * * * * //

dimensions      [0 2 -2 0 0 0 0];

internalField   nonuniform List<scalar> 
424
(
-1.33411e-07
0.0855919
0.013286
0.0487652
0.117409
0.266795
0.0340851
-0.0459773
0.293269
0.51413
0.397094
0.404394
-0.080963
-0.235525
0.527066
0.789205
0.503268
0.506262
-0.488861
-0.266735
0.787153
1.06614
0.697533
0.698162
-0.763643
-0.506435
-0.349927
-0.358364
1.05032
1.31854
1.5086
1.60326
0.908573
0.907194
-3.73873
-1.02057
-1.29441
-1.63566
-0.767657
-0.457339
-0.460305
1.28877
1.47313
1.58925
1.5513
1.09832
1.09589
-3.07958
-3.13982
-1.01513
-1.29179
-1.41424
-0.651228
-0.652246
1.56701
1.64035
1.19728
1.19437
-2.71536
-1.50484
-0.870391
-0.87014
1.6773
1.82367
-1.3469
-0.814428
-1.07309
-1.07528
2.07226
1.8542
-0.0389276
-0.756457
-1.18833
-1.20533
2.34291
2.0876
1.95406
1.95967
0.803969
-0.00395761
4.84059
2.60708
1.63347
2.40103
3.11344
5.45277
3.22104
2.87241
2.34279
2.06446
2.06738
0.80551
-0.47788
4.38777
2.59513
1.61482
2.35549
2.93368
4.72712
2.97074
2.86337
2.25948
2.26054
-0.170629
-0.497402
2.47754
2.47784
0.427098
-0.171886
2.67562
2.68004
1.0967
0.427238
2.79714
2.81748
1.70313
1.09383
2.02076
1.70107
2.03603
0.125358
0.0241581
0.0506455
0.024326
0.0533817
0.149505
-0.0563461
-0.00264291
0.194555
0.274942
0.293671
0.161839
0.157471
0.192298
0.313392
0.293608
0.29629
0.420303
0.38958
0.428266
-0.000766861
-0.00837841
0.0322866
0.0277191
-0.0625045
-0.0877505
-0.0889863
-0.175663
-0.101805
-0.194015
-0.054146
0.0300025
0.0865285
0.133398
0.236982
0.170769
0.373357
0.365849
0.466542
0.527969
0.58825
0.506065
0.612655
-0.115651
-0.109291
-0.210179
-0.270448
-0.277375
-0.266569
-0.305456
-0.0942518
-0.279054
-0.123078
-0.19017
0.665245
0.663711
0.790311
0.829431
0.702486
0.829122
-0.354482
-0.344331
-0.506293
-0.377901
-0.432583
-0.350621
-0.389297
0.947533
0.950798
1.05221
1.04464
1.15067
0.91395
1.0254
-0.615762
-0.762727
-0.554388
-0.623472
-0.460214
-0.571605
1.20405
1.22103
1.30712
1.28275
1.37413
1.32038
1.20778
1.29157
1.10044
1.18301
-0.90326
-1.01286
-0.791621
-0.894806
-0.65601
-0.796575
1.43881
1.40917
1.41933
1.48836
1.46579
1.4276
1.43527
1.48437
1.4901
1.55339
1.57874
1.57534
1.32376
1.40256
1.2036
1.31789
1.47868
1.51352
1.57933
-1.49869
-1.88979
-2.74693
-2.46467
-1.16355
-1.28324
-1.42554
-1.15901
-1.0084
-1.0954
-0.875514
-0.999071
-1.33482
-1.44806
1.60521
1.55209
1.5605
1.55984
1.61071
1.55705
1.60062
1.65633
1.68445
1.70455
1.78319
1.4492
1.52038
1.66173
1.6065
1.34135
1.40459
-1.75988
-1.63621
-1.93832
-1.35358
-1.29827
-1.24449
-1.31278
-1.15581
-1.2106
-1.0702
-1.15542
-0.980191
-1.34702
-1.24599
-1.17318
-1.26744
-1.35279
1.68708
1.73046
1.79576
1.70222
1.85573
1.84683
1.84823
1.88421
1.70517
1.85918
1.73806
1.79961
-1.06115
-0.893549
-1.18652
-0.73892
-0.734687
-0.632958
-1.24166
-1.25198
-0.817086
-0.879804
-1.1903
-1.25043
-1.10888
-1.17417
-1.32036
-1.2719
-1.16969
-0.830633
1.9116
1.92005
2.08626
1.97452
2.01704
1.94645
1.984
-0.472266
-0.465972
0.019378
-0.424969
-0.186457
-0.508146
-0.408516
-1.41831
-1.34426
-1.17682
-1.22057
-1.20577
-1.52987
-1.48487
-1.18941
2.21508
2.34339
2.14179
2.21524
2.06479
2.16576
0.364649
0.812253
0.113634
0.364785
-0.162141
0.16765
-1.11706
4.06879
4.34004
2.4966
2.59217
2.37293
2.49402
2.26322
2.38215
1.25392
1.62012
0.888737
1.25876
0.439963
0.880774
2.87564
3.45717
2.74317
2.84922
2.06658
2.34685
2.74221
3.01156
3.33382
3.0807
3.52539
2.91829
2.73587
2.59224
2.68758
2.47793
2.57997
2.10947
1.55779
1.78315
1.11013
1.49336
2.63214
3.18233
2.89136
2.82769
2.34626
2.5051
3.04804
2.93427
2.91082
2.89115
2.76966
2.80052
2.67089
2.76661
1.97787
2.22805
1.70291
1.95087
2.61543
2.8339
2.83861
2.85191
2.32904
2.5541
2.91246
2.83973
2.85767
2.806
2.85444
2.04156
2.29819
2.7243
3.02496
2.95275
2.6925
2.73619
3.13541
3.0839
2.71949
2.64405
)
;

boundaryField
{
    movingWall
    {
        type            zeroGradient;
    }
    fixedWalls
    {
        type            zeroGradient;
    }
    frontAndBack
    {
        type            empty;
    }
    defaultFaces
    {
        type            empty;
    }
}


// ************************************************************************* //
