/*--------------------------------*- C++ -*----------------------------------*\
  =========                 |
  \\      /  F ield         | OpenFOAM: The Open Source CFD Toolbox
   \\    /   O peration     | Website:  https://openfoam.org
    \\  /    A nd           | Version:  8
     \\/     M anipulation  |
\*---------------------------------------------------------------------------*/
FoamFile
{
    version     2.0;
    format      ascii;
    class       volScalarField;
    location    "0.044";
    object      p;
}
// * * * * * * * * * * * * * * * * * * * * * * * * * * * * * * * * * * * * * //

dimensions      [0 2 -2 0 0 0 0];

internalField   nonuniform List<scalar> 
424
(
-1.73509e-06
0.0550037
0.013582
0.117966
0.0957094
0.247632
0.102264
0.0548338
0.277526
0.495505
0.47877
0.491642
0.0112894
-0.150613
0.508074
0.749765
0.508239
0.513901
-0.422036
-0.184174
0.749194
1.00244
0.672819
0.673535
-0.674229
-0.436645
-0.38084
-0.396234
0.988382
1.26979
1.47579
1.53822
0.850176
0.848258
-3.52158
-0.88905
-1.11165
-1.38901
-0.676939
-0.41237
-0.417515
1.23566
1.42948
1.52544
1.41537
1.00686
1.0045
-2.88777
-2.65105
-0.88734
-1.12253
-1.18068
-0.576944
-0.578163
1.43282
1.4706
1.0255
1.02172
-2.26911
-1.1265
-0.759616
-0.757309
1.51796
1.67542
-1.05176
-0.621545
-0.946366
-0.945313
1.92535
1.7087
-0.0207403
-0.598968
-1.01249
-1.0367
2.18165
1.93774
1.8981
1.9113
0.728239
0.00844237
4.37585
2.40406
1.47377
2.10451
2.68242
5.25499
2.88557
2.61753
2.17943
1.94295
1.94868
0.733635
-0.386709
3.94775
2.39741
1.45931
2.08226
2.56928
4.53645
2.64136
2.6274
2.10502
2.10575
-0.162768
-0.412507
2.29274
2.29029
0.393082
-0.163141
2.48809
2.49278
0.979173
0.392514
2.57527
2.60607
1.56089
0.97814
1.82239
1.55602
1.84052
0.130938
0.0405768
0.0477969
0.0787167
0.0945338
0.165895
-0.0273087
0.0103119
0.224436
0.318037
0.333266
0.151111
0.177669
0.219132
0.336075
0.303706
0.294898
0.445333
0.461459
0.446368
0.065352
-0.000497684
0.0703179
0.0359051
-0.0163465
-0.0626018
-0.0403011
-0.160872
-0.0822164
-0.18909
0.00088183
0.0449722
0.0691159
0.11398
0.30582
0.169847
0.363362
0.353368
0.49065
0.511329
0.583923
0.513359
0.599047
-0.0309618
-0.0331785
-0.185975
-0.202811
-0.23198
-0.26737
-0.271634
-0.0485391
-0.281686
-0.0948534
-0.233309
0.643059
0.639019
0.751006
0.783322
0.679138
0.784425
-0.293735
-0.281671
-0.439185
-0.33894
-0.40148
-0.381238
-0.34895
0.885736
0.885136
0.985835
0.958342
1.05255
0.85378
0.943811
-0.546852
-0.672343
-0.503749
-0.554961
-0.419943
-0.515278
1.13591
1.15067
1.20719
1.2179
1.27453
1.22128
1.1096
1.18323
1.00483
1.08284
-0.78885
-0.883681
-0.696366
-0.776948
-0.583101
-0.700577
1.32539
1.30431
1.31729
1.35461
1.40193
1.38605
1.3824
1.38609
1.39073
1.49775
1.5003
1.44976
1.18475
1.27089
1.03861
1.18553
1.3538
1.38439
1.45395
-1.26542
-1.65517
-2.502
-2.08813
-1.01832
-1.11732
-1.23149
-1.0189
-0.868204
-0.935513
-0.764307
-0.870082
-1.14726
-1.25494
1.50174
1.44757
1.45838
1.45278
1.51791
1.45789
1.46853
1.5176
1.56266
1.58833
1.68696
1.3404
1.43584
1.51173
1.49514
1.13854
1.26326
-1.48768
-1.41877
-1.63507
-1.23533
-1.08035
-1.1041
-1.14907
-1.00623
-1.07061
-0.942657
-1.01926
-0.854721
-1.19499
-1.10103
-1.07427
-1.11792
-1.22085
1.56624
1.623
1.69898
1.55628
1.73546
1.73048
1.7623
1.78534
1.56429
1.77364
1.61189
1.73793
-0.818034
-0.723248
-0.941221
-0.594412
-0.698827
-0.564778
-1.09607
-1.10547
-0.746695
-0.756862
-1.02314
-1.12673
-1.03852
-1.07748
-1.24122
-1.17206
-1.05097
-0.753309
1.77591
1.78994
1.94081
1.86876
1.91334
1.88596
1.87275
-0.395553
-0.399312
0.0270994
-0.357094
-0.0568278
-0.411687
-0.344901
-1.4008
-1.31495
-1.08196
-1.21425
-1.15638
-1.51038
-1.48573
-1.19802
2.06699
2.18184
2.01566
2.0649
1.94678
2.02996
0.311322
0.738106
0.073753
0.327501
-0.160612
0.14521
-1.13421
3.71437
4.06665
2.31325
2.3927
2.18869
2.31078
2.11138
2.20102
1.14663
1.45216
0.805963
1.13714
0.417288
0.792356
2.57839
3.13392
2.53369
2.62158
1.88882
2.07561
2.37379
2.73872
3.01094
2.74791
3.21747
2.6502
2.52453
2.40086
2.47262
2.29175
2.39319
1.90376
1.44077
1.52914
0.981469
1.35563
2.28344
2.92134
2.65901
2.62051
2.1793
2.20506
2.79789
2.67998
2.70135
2.67881
2.58136
2.59596
2.479
2.58924
1.79175
2.03801
1.56967
1.77223
2.39694
2.65497
2.62631
2.64326
2.15847
2.35982
2.76888
2.63474
2.67422
2.59423
2.66903
1.84518
2.12307
2.62696
2.97737
2.88857
2.53053
2.56603
3.09538
3.05856
2.63777
2.55855
)
;

boundaryField
{
    movingWall
    {
        type            zeroGradient;
    }
    fixedWalls
    {
        type            zeroGradient;
    }
    frontAndBack
    {
        type            empty;
    }
    defaultFaces
    {
        type            empty;
    }
}


// ************************************************************************* //
