/*--------------------------------*- C++ -*----------------------------------*\
  =========                 |
  \\      /  F ield         | OpenFOAM: The Open Source CFD Toolbox
   \\    /   O peration     | Website:  https://openfoam.org
    \\  /    A nd           | Version:  8
     \\/     M anipulation  |
\*---------------------------------------------------------------------------*/
FoamFile
{
    version     2.0;
    format      ascii;
    class       volScalarField;
    location    "0.037";
    object      p;
}
// * * * * * * * * * * * * * * * * * * * * * * * * * * * * * * * * * * * * * //

dimensions      [0 2 -2 0 0 0 0];

internalField   nonuniform List<scalar> 
424
(
1.23112e-06
0.0551057
0.0135841
0.117681
0.0957645
0.247641
0.10199
0.0544588
0.277516
0.495441
0.478375
0.491222
0.0109672
-0.150847
0.508009
0.749699
0.5081
0.51375
-0.422103
-0.184385
0.749124
1.00238
0.672723
0.673438
-0.674303
-0.43672
-0.380574
-0.395942
0.988314
1.26958
1.47545
1.53797
0.850138
0.848221
-3.5216
-0.889124
-1.11161
-1.38882
-0.677013
-0.412363
-0.417499
1.23547
1.42919
1.52519
1.41542
1.00689
1.00453
-2.8878
-2.65138
-0.88741
-1.12252
-1.18056
-0.576981
-0.578196
1.43285
1.47076
1.02581
1.02204
-2.26945
-1.12695
-0.75972
-0.757415
1.51806
1.67544
-1.05213
-0.621804
-0.94654
-0.945497
1.92529
1.7087
-0.0208624
-0.599187
-1.01293
-1.03714
2.18157
1.93769
1.89774
1.91092
0.728102
0.00831565
4.37578
2.40397
1.47363
2.10449
2.68245
5.25463
2.8852
2.61729
2.17935
1.9428
1.94852
0.733499
-0.386543
3.94768
2.39731
1.45918
2.08221
2.56925
4.53612
2.64108
2.62719
2.10492
2.10565
-0.162804
-0.412337
2.29269
2.29024
0.392992
-0.163174
2.48807
2.49277
0.979019
0.392425
2.57548
2.60629
1.56065
0.977986
1.82189
1.55578
1.84001
0.130888
0.0405093
0.0478017
0.0784992
0.094391
0.165818
-0.0273657
0.0103007
0.224299
0.317825
0.333065
0.151116
0.177558
0.218995
0.335922
0.303607
0.294834
0.445143
0.461103
0.446203
0.0651025
-0.000508846
0.0701655
0.035874
-0.0164856
-0.062641
-0.0404542
-0.160841
-0.0822185
-0.189011
0.00073839
0.0449498
0.0692048
0.11407
0.305543
0.169856
0.363306
0.353328
0.490445
0.511255
0.583791
0.513211
0.598934
-0.0312407
-0.0334235
-0.185977
-0.202964
-0.232036
-0.267243
-0.271631
-0.0486335
-0.281548
-0.0948703
-0.233033
0.642965
0.63894
0.750939
0.783263
0.679036
0.78436
-0.293825
-0.281773
-0.439247
-0.338934
-0.401431
-0.380973
-0.348946
0.885698
0.885114
0.985784
0.958365
1.05258
0.853746
0.943826
-0.546885
-0.67242
-0.50373
-0.554994
-0.419917
-0.515277
1.13581
1.15058
1.20719
1.21776
1.27449
1.22128
1.10962
1.18327
1.00487
1.08288
-0.788967
-0.883764
-0.69643
-0.777078
-0.583132
-0.700642
1.3254
1.3043
1.31726
1.35469
1.40172
1.38578
1.38217
1.38602
1.39067
1.49748
1.50011
1.44976
1.18489
1.27099
1.03889
1.18565
1.35386
1.38445
1.45398
-1.26544
-1.65515
-2.50206
-2.08841
-1.0184
-1.11735
-1.23144
-1.01892
-0.868396
-0.935748
-0.764412
-0.870242
-1.14728
-1.25508
1.50167
1.44752
1.45832
1.45271
1.51778
1.45779
1.46855
1.51766
1.56262
1.58828
1.68682
1.3404
1.43573
1.51183
1.49511
1.13894
1.2634
-1.48781
-1.41891
-1.6354
-1.23523
-1.08058
-1.10421
-1.14922
-1.00648
-1.0708
-0.942832
-1.01949
-0.854829
-1.19509
-1.10109
-1.07429
-1.11801
-1.221
1.5662
1.6229
1.69883
1.55632
1.73536
1.73038
1.76209
1.78516
1.56435
1.77343
1.61188
1.73766
-0.818424
-0.723404
-0.941554
-0.594551
-0.698831
-0.564781
-1.09632
-1.10564
-0.74667
-0.756874
-1.02354
-1.12698
-1.03854
-1.07753
-1.24134
-1.17215
-1.05117
-0.753369
1.77585
1.78986
1.94074
1.86857
1.91313
1.88562
1.87259
-0.395689
-0.399433
0.0269944
-0.357131
-0.0569177
-0.411577
-0.34496
-1.40089
-1.31487
-1.0822
-1.21445
-1.15661
-1.51081
-1.48592
-1.19811
2.06689
2.18176
2.0155
2.06482
1.94661
2.02982
0.311239
0.737965
0.0737426
0.327369
-0.160621
0.145148
-1.13403
3.7142
4.06638
2.31319
2.39263
2.18866
2.31072
2.11127
2.20098
1.14645
1.45201
0.805838
1.13698
0.417196
0.792243
2.57824
3.13382
2.53367
2.62142
1.88873
2.07552
2.37377
2.73847
3.01074
2.74779
3.21723
2.64997
2.52434
2.40082
2.47261
2.2917
2.39314
1.90368
1.44046
1.52891
0.981315
1.35541
2.28332
2.9212
2.659
2.62047
2.17903
2.20481
2.79782
2.67977
2.70123
2.67879
2.58136
2.59598
2.479
2.58922
1.79147
2.03774
1.56942
1.77196
2.39691
2.6548
2.62641
2.64328
2.15816
2.35963
2.76872
2.6345
2.67428
2.5944
2.66913
1.84472
2.12274
2.62681
2.97718
2.88824
2.53046
2.56599
3.09554
3.05845
2.63754
2.55806
)
;

boundaryField
{
    movingWall
    {
        type            zeroGradient;
    }
    fixedWalls
    {
        type            zeroGradient;
    }
    frontAndBack
    {
        type            empty;
    }
    defaultFaces
    {
        type            empty;
    }
}


// ************************************************************************* //
