/*--------------------------------*- C++ -*----------------------------------*\
  =========                 |
  \\      /  F ield         | OpenFOAM: The Open Source CFD Toolbox
   \\    /   O peration     | Website:  https://openfoam.org
    \\  /    A nd           | Version:  8
     \\/     M anipulation  |
\*---------------------------------------------------------------------------*/
FoamFile
{
    version     2.0;
    format      ascii;
    class       volScalarField;
    location    "19000";
    object      epsilon;
}
// * * * * * * * * * * * * * * * * * * * * * * * * * * * * * * * * * * * * * //

dimensions      [0 2 -3 0 0 0 0];

internalField   nonuniform List<scalar> 
4109
(
0.117504
0.131181
0.120809
0.129879
0.135524
0.131486
0.13676
0.120696
0.145275
0.145107
0.14318
0.147277
0.120098
0.134656
0.139654
0.150936
0.151596
0.149996
0.152001
0.141144
0.121866
0.130646
0.13148
0.158825
0.160152
0.165331
0.119998
0.133813
0.118579
0.16047
0.149186
0.143184
0.132437
0.13128
0.137933
0.163078
0.164098
0.176547
0.137249
0.119692
0.13447
0.137052
0.122389
0.166565
0.154523
0.55256
0.25001
0.148859
0.143826
0.132372
0.138991
0.170778
0.178449
0.192218
0.150421
0.137665
0.117473
0.135025
0.139348
0.147655
0.143946
0.676935
0.177315
0.163066
0.157185
0.212702
0.553039
0.151025
0.143476
0.143701
0.207829
0.184805
0.236317
0.22742
0.224585
0.155909
0.155591
0.143864
0.134909
0.144256
0.140646
0.143545
0.149306
0.152106
0.182915
0.248595
0.590544
0.800425
0.810745
0.188968
0.184678
0.169517
0.163121
0.157878
0.193881
0.422511
0.151296
0.143933
0.237085
0.220717
0.209838
0.242332
0.248356
0.245916
0.251896
0.165708
0.161302
0.155561
0.141095
0.154496
0.208265
0.147196
0.151785
0.154731
0.161319
0.81873
0.303741
0.400328
0.567073
0.895774
0.846954
0.252127
0.206331
0.194385
0.178849
0.172037
0.165669
0.157406
0.429746
0.162586
0.154745
0.241512
0.227104
0.260361
0.251883
0.27434
0.256568
0.172099
0.169813
0.169408
0.155151
0.161008
0.211052
0.152191
0.15755
0.162786
0.166815
0.798396
0.47473
0.916131
0.599408
0.926016
0.285206
0.214462
0.20367
0.186773
0.179151
0.17249
0.166066
0.159857
0.415407
0.154469
0.235695
0.221824
0.269644
0.248224
0.279166
0.283649
0.300085
0.182715
0.178213
0.177021
0.163901
0.16963
0.226741
0.15922
0.165602
0.168919
0.176766
0.556394
0.972774
0.580182
1.00957
0.984542
0.313923
0.197387
0.207055
0.188714
0.172229
0.180802
0.170737
0.473944
0.163198
0.219138
0.230588
0.263616
0.24429
0.278158
0.297222
0.296313
0.338056
0.190362
0.188165
0.189463
0.17777
0.17135
0.228563
0.165791
0.171663
0.177975
0.183811
0.602951
1.05484
1.07894
0.666646
1.09702
0.310202
0.198463
0.210152
0.184839
0.178471
0.49648
0.169887
0.221467
0.234392
0.257909
0.24768
0.273648
0.29623
0.311801
0.335234
0.375038
0.20244
0.196972
0.196614
0.189096
0.178953
0.241325
0.179824
0.172462
0.211962
0.185977
0.194914
0.591069
1.15091
0.698049
1.19349
1.19348
0.329705
0.200876
0.208848
0.190313
0.547526
0.171657
0.224067
0.234165
0.26209
0.250337
0.277485
0.289834
0.315064
0.338442
0.362229
0.422392
0.213113
0.205309
0.202638
0.222024
0.181143
0.245402
0.184168
0.225183
0.203815
0.196864
1.2424
0.615499
1.29093
0.766571
1.32906
0.338389
3.64985
0.202997
0.215219
0.577135
0.179054
0.223643
0.237527
0.26306
0.249462
0.279754
0.293522
0.308307
0.33749
0.364643
0.402126
0.412958
0.47906
0.210092
0.219833
0.203516
0.234342
0.236736
0.186844
0.255239
0.199698
0.216296
0.207086
0.639526
1.36629
1.4156
0.770353
1.44521
0.353954
4.40738
3.87582
4.60697
3.18424
3.9592
2.78974
0.751981
0.187953
0.232169
0.238452
0.254128
0.252443
0.267529
0.280579
0.29401
0.311392
0.42399
0.327688
0.361238
0.397176
0.478459
0.541667
0.510046
0.617859
0.231726
0.225023
0.247544
0.251647
0.227122
0.19941
0.271819
0.207346
0.219421
0.699116
1.52112
1.50348
0.357076
9.80429
7.17486
4.72242
3.39321
4.36372
5.47821
0.724371
0.718617
0.810411
3.02079
2.61985
2.79068
2.54537
2.91514
1.38697
0.218514
0.306337
0.287399
0.273888
0.464694
0.284918
0.29562
0.311873
0.330418
0.42252
0.349641
0.387942
0.533201
0.479672
0.589861
0.576224
0.721148
0.806613
0.248664
0.251309
0.265024
0.264859
0.241316
0.231316
0.209934
0.269378
0.223009
0.790012
1.81204
10.1273
7.33936
3.60962
4.35717
5.52844
0.787731
0.840137
0.920336
0.843768
0.898342
2.13266
2.32175
2.24651
2.52334
2.99091
2.06892
1.18158
0.31838
0.328622
0.29229
0.454859
0.47188
0.310683
0.308336
0.329142
0.351503
0.414618
0.373177
0.542322
0.509188
0.595643
0.647278
0.729696
0.766512
0.276542
0.265319
0.232793
0.293498
0.281782
0.254491
0.245423
0.319437
0.236783
0.224543
0.33065
0.86805
9.84249
11.2001
7.49129
3.58597
4.45296
5.70717
0.830641
1.00247
1.18956
0.939052
1.02763
1.82949
1.47208
0.933202
1.00112
1.9927
2.18588
2.5446
2.95255
2.48355
2.13104
0.605493
0.345346
0.325213
0.44396
0.473825
0.325192
0.328341
0.349737
0.374207
0.400022
0.553597
0.513289
0.605108
0.660802
0.698565
0.758244
0.302253
0.319378
0.295074
0.248684
0.249057
0.27097
0.286961
0.259836
0.334763
0.307203
1.72654
2.49524
0.241294
0.235147
10.2517
7.29755
7.04484
11.4057
7.76151
3.63366
4.54875
5.91913
0.912761
0.805851
1.07055
1.20277
1.13502
1.4044
1.66362
1.0369
1.12286
1.90799
2.14635
2.52699
3.06518
3.27151
3.08747
3.87896
0.641781
0.409766
0.348311
0.429296
0.462463
0.350669
0.34667
0.370389
0.400717
0.498965
0.540404
0.586575
0.639251
0.693383
0.739234
0.773232
0.33738
0.335561
0.262451
0.261986
0.276741
0.293221
0.312759
0.358075
0.32708
0.26437
0.361075
0.458569
10.664
7.53974
6.47381
4.31497
4.3917
11.5843
7.60072
3.7155
4.14697
4.95762
1.00671
0.876719
0.838714
1.61549
1.25986
1.35025
1.15896
1.24828
1.86929
2.11717
2.63669
3.13222
0.945119
3.87828
3.922
4.47865
0.854858
0.455414
0.386789
0.429776
0.462374
0.371141
0.373308
0.398423
0.498412
0.539005
0.584337
0.635693
0.680297
0.713926
0.770654
0.782891
0.376176
0.37787
0.283054
0.282784
0.298944
0.315768
0.331774
0.385257
0.349436
0.332951
0.283582
0.302674
10.4477
3.29171
6.16611
5.39711
4.35535
11.7404
7.70914
3.51002
4.33029
5.22201
6.51452
1.11569
0.862337
0.976293
0.867314
1.29764
1.56127
1.41971
1.87386
2.27455
2.71537
2.99761
0.994723
4.63724
4.8126
5.59152
0.96542
0.532893
0.421966
0.46009
0.426059
0.396673
0.401668
0.494671
0.535264
0.627015
0.578133
0.66774
0.709718
0.711793
0.759966
0.823954
0.421507
0.407905
0.417834
0.304295
0.303464
0.330321
0.349413
0.372167
0.364646
0.306067
0.349343
10.9353
7.30173
2.47821
2.7169
4.9653
4.35675
3.59392
8.10778
11.6782
3.65402
4.28726
5.04612
6.20935
1.23862
0.892839
1.06792
0.919244
0.979825
1.46353
1.57339
1.37164
1.94505
2.32959
2.63831
3.13335
1.4745
5.55556
5.89822
6.5166
1.20992
0.611276
0.444859
0.463035
0.42899
0.429549
0.502869
0.534686
0.617387
0.580809
0.68116
0.711791
0.749129
0.798986
0.857106
0.474619
0.456775
0.45167
0.400129
0.330297
0.332456
0.351184
0.365318
0.38138
0.330773
0.412202
11.7556
8.623
6.4432
5.50839
1.92308
2.16862
2.59469
4.1624
3.56008
3.08902
1.56117
8.09184
11.4655
11.6747
3.6375
4.28798
5.73851
5.04662
1.19567
0.94388
1.04419
0.973716
1.51542
1.70893
1.33248
3.13816
2.00076
2.24162
2.7031
1.59834
6.7592
7.27268
8.13591
0.473557
1.45148
0.632413
0.466601
0.466558
0.554019
0.531742
0.636343
0.643754
0.598497
0.691277
0.752922
0.811263
0.537123
0.500036
0.485586
0.428655
0.414895
0.351332
0.347283
0.371955
0.394284
0.35537
0.440472
0.617021
0.702066
8.36457
6.67936
5.12869
4.42389
1.77569
2.19127
2.62916
3.42764
2.94203
1.4646
1.24731
1.07337
0.860721
0.799973
10.8309
7.80641
10.8555
8.13343
3.16462
3.67723
4.21667
5.60405
1.17294
0.996243
1.0563
1.72703
1.52246
1.33607
1.26962
2.69359
2.68788
1.97713
2.33248
1.95523
9.22402
8.37806
9.37481
0.666782
1.56173
0.501308
0.557501
0.639103
0.583287
0.686661
0.732792
0.786205
0.541475
0.520549
0.462879
0.440202
0.418149
0.380344
0.375292
0.39912
0.513345
0.384175
0.741298
0.619381
0.680215
6.409
5.41963
4.19619
3.58392
1.79217
2.24733
2.47653
2.82513
1.57428
1.23732
1.30377
0.760503
1.04561
0.825783
0.900504
8.01285
6.67113
6.2525
5.15083
3.0025
3.52707
4.60312
2.63039
1.13366
1.0573
1.64541
1.40684
1.532
1.36024
1.22197
2.36244
2.40651
2.00183
1.80481
11.3032
10.5303
11.3681
1.0735
1.75266
0.552536
0.322395
0.635518
0.700528
0.75961
0.561334
0.49899
0.479269
0.452833
0.426529
0.403014
0.39636
0.462837
0.401894
0.691125
0.616146
5.04642
5.20355
4.42532
3.43665
2.91191
1.92208
2.12035
2.36741
1.64355
1.45871
1.28052
0.768993
0.819099
1.128
0.891278
0.984568
5.79421
5.17641
5.13595
4.29851
2.32756
3.11933
3.40962
2.69069
4.32648
1.1215
1.72947
1.56773
1.47289
1.30098
1.19121
1.80687
1.99252
2.03127
1.85054
15.1817
13.6414
15.6522
3.07159
0.617991
0.902116
0.681365
0.743259
0.54147
0.513411
0.483969
0.459919
0.433653
0.429523
0.471804
0.437807
0.676729
0.587682
4.25038
4.32604
3.54113
2.79965
2.41798
1.82953
2.01411
1.58802
1.39072
1.23524
0.73914
0.801274
1.10345
0.887542
0.980629
4.27265
4.13339
3.34532
1.89332
2.0972
2.38375
2.6044
3.55148
1.50034
1.37258
1.25155
1.64509
1.58003
1.79791
2.64582
20.878
27.4006
9.45575
0.677835
1.11631
0.73919
0.560257
0.525762
0.4952
0.462847
0.458288
0.506397
0.641492
0.605448
3.51507
3.45936
2.81686
2.32353
2.0518
1.73467
1.51063
1.32712
1.17599
0.701314
0.770843
1.04884
0.849662
0.941949
3.40615
3.40176
2.78919
1.95536
2.1278
2.30828
1.81823
2.82758
1.41158
1.30882
1.5097
1.54038
1.67697
4.71083
46.1585
45.5017
21.3398
0.754616
2.34199
0.566036
0.536535
0.494043
0.502083
0.618667
0.66322
0.617523
2.83005
2.81309
2.33797
1.98757
1.76637
1.53934
1.35298
1.20186
0.722681
0.795328
1.07356
0.873576
0.967578
2.78428
2.77102
2.32925
1.85494
1.98324
1.68678
2.347
1.35724
1.43021
1.45601
1.52722
1314.32
10.0996
77.9301
81.045
51.3571
1482.18
0.57955
0.541244
0.556467
0.553664
0.849133
0.669739
0.63024
2.30199
2.32658
1.99986
1.72339
1.50583
1.33252
1.18733
0.734069
0.800822
1.07025
0.880699
0.966507
2.21336
2.23581
1.98269
1.68309
1.53066
1.95586
2.00959
1105.21
1207.42
23.4124
139.891
140.01
1582.02
1368.83
1951.62
0.594757
0.541555
0.613936
0.610647
1.41936
0.685711
0.625129
2.01128
2.00478
1.7267
1.50891
1.33495
1.1959
0.749651
0.819722
1.08029
0.982876
0.896165
1.97308
1.75619
1.5274
1.74006
1.81119
1.77997
764.661
975.792
1147.8
53.4676
1532.95
1304.27
1833.43
1961.86
0.621454
0.617007
0.683103
3.05677
0.699389
0.634824
1.67087
1.68281
1.48697
1.32162
1.19071
0.750479
0.83217
1.08565
0.991898
0.909468
1.76057
1.57274
1.623
1.65276
1.63803
1.61587
713.279
611.619
896.746
1138.57
1896.86
1679.04
1524.25
1292.49
1911.17
1981.14
0.660358
0.681181
0.756315
0.681864
0.700275
0.74003
1.54804
1.37307
1.2523
1.13419
0.810668
0.822034
1.06372
0.964322
0.918441
1.57055
1.5248
1.52905
1.50798
1.48163
557.642
507.423
863.966
1195.05
2190.86
1963.95
1473.42
1725.28
1572.49
1349.24
2039.09
2022.64
0.695939
0.723813
0.739426
0.761955
0.82264
1.45043
1.33284
1.23496
1.13748
0.853107
0.878214
1.06159
0.990505
0.932846
1.42033
1.38876
1.34338
2452.51
445.152
440.96
884.146
1369.59
2212.84
2136.54
1260.05
1495.95
1817.16
1713.61
1527.95
2269.1
2098.68
0.72605
0.752571
0.787702
0.820103
1.32131
1.27176
1.20442
1.1331
0.865973
0.909179
1.06607
1.00828
0.953805
2902.68
2422.68
366.219
407.037
990.174
1881.66
2277.3
2423.98
1155.64
1260.32
1549.95
1968.66
2040.39
2051.35
2678.29
2237
3213.05
3027.84
2397.89
313.905
408.403
1333.71
4454.23
2421.83
2927.65
988.951
1163.21
1290.31
1654.56
2223.88
2895.7
4637.82
3463.43
2480.25
3244.14
3589.25
3080.97
2414.01
292.306
487.48
3078.9
2704.63
3774.68
876.822
999.808
1193.09
1365.66
1844.75
2687.18
6775.86
5315.27
3167.53
3689.6
3997.28
3097.78
2525.73
321.79
958.509
3286.65
5362.78
596.731
869.485
1048.53
1261.81
1514.83
2207.93
3718.73
12568.2
2698.24
3451.11
4263.69
4410.91
3167.39
2828.42
573.533
4696.76
129.268
536.972
868.414
1148.94
1397.37
1808.02
3042.27
7544.15
2974.02
3096.94
3751.28
5007.4
4811.58
3403.03
3637.13
10117.2
83.7196
121.431
493.354
873.548
1332.65
1665.89
2487.14
6174.07
2505.98
3424.73
3574.23
4141.2
6028.75
5286.15
4125.93
6825.9
91.1775
88.1443
117.564
463.041
887.818
1679.59
2289.4
4978.07
1309.8
3035.26
4004.64
4165.93
4653.13
7393.62
6188.37
7092.91
97.2226
99.1895
95.7638
118.766
447.144
922.804
2460.23
4556.27
1076.59
1492.05
3854.44
4793.39
4948.12
5462.11
9132.81
9414.76
97.6963
105.688
110.74
107.945
128.772
449.937
1032.4
5230.79
930.537
1174.27
1637.96
5310.74
5935.4
6118.44
7322.12
11237.4
92.3583
106.143
117.892
127.697
127.768
160.266
520.639
1298.77
946.796
1045.28
1287
1763.29
8148.65
7698.34
8262.2
9319.07
85.3105
100.282
118.329
135.872
154.154
163.43
249.51
1060.5
1075.2
1057.9
1172.17
1442.25
1880.21
14016.8
10459
14413.9
128.452
89.7425
111.81
136.296
164.033
200.794
246.382
662.624
1335.61
1176.36
1182.66
1334.75
1686.68
2091.68
27315.3
13187.6
577.407
121.151
97.4218
128.803
164.45
213.975
307.771
600.132
2463.14
1551.03
1292.43
1344.53
1575.31
2120.35
3109.68
66796.8
901.646
523.268
117.723
109.704
155.408
214.403
328.799
763.849
2878.2
2845.17
1774.19
1450.48
1585.69
1988.27
3054.97
8276.54
1000.82
888.368
481.762
119.352
129.694
202.409
329.34
817.149
2613.67
3271.01
3267.79
2057.29
1697.13
2001.53
2868.51
6050.64
1174.36
1015.68
885.575
451.94
129.981
165.653
310.25
817.221
3252.28
3012.62
3738.46
3768
2482.75
2135.34
2890.61
5719.24
1268.89
1185.58
1069.49
890.737
436.069
162.058
249.015
767.082
3350.62
3576.8
3499.44
4304.54
4383.31
3216.15
3090.42
5794.71
1486.15
1271.53
1220.49
1176.03
905.963
438.789
251.673
601.854
3293.05
3821.35
3886.07
4083.51
5107.47
5177.6
4696.27
6240.59
1705.8
1513.68
1305.33
1295.65
1367.77
944.035
509.394
662.155
2894.57
3690.92
4438.97
4223.49
4846.25
6498.72
6508.58
9145.05
2081.49
1891.1
1763.55
1573.73
1385.72
1439.97
1727.44
1057.81
1048.01
2435.23
3005.17
4099.8
5265.04
4648.9
5860.16
9328.84
12223.4
1696.78
2082.9
1987.29
1868.41
1684.69
1541.82
1722.55
2538.65
1340.91
2175.78
2404.84
3048.88
4477.44
6380.17
5553.01
7992.58
15292.8
1849.57
1532.46
1655.49
2103.72
2130.34
2032.92
1882.57
1847.52
2376.82
5421.56
2185.34
2378.32
3073.4
4817.71
7787.25
7740.5
18040
1913.82
767.55
1437.73
1435.32
1656.01
2149.75
2379.93
2302.88
2257.98
2552.98
4759.97
851.739
1214.36
2240.51
2391.81
3148.2
5224.51
9545.6
10967.2
2072.78
601.03
1323.44
1380.93
1716.68
2234.09
2818.13
2786.85
3117.5
5150.6
678.528
1084.54
2377.27
2499.53
3381.82
6144.68
11968.3
2347
480.678
1261.06
1379.21
1878.56
2385.32
3654.13
3856.53
6353.96
563.617
1004.24
2650.54
2796.16
4103.31
9653.49
2831.04
396.122
1254.6
1449.65
2243.22
2651.44
5631.88
7835.42
489.639
972.742
3214.87
3592.67
7037.53
3662.68
339.611
1321.45
1653.71
3195.19
13421
450.545
999.641
4584.35
6727.84
5229.91
315.268
1521.45
2238.39
7538.47
448.507
1121.99
9844.53
343.188
2101.58
5136.81
527.178
1509.46
610.188
5000.17
1009.22
3464.74
0.906032
0.866226
0.89096
0.890871
0.920158
0.916365
0.929824
0.929214
0.947144
0.833829
0.854734
0.862938
0.88665
0.893367
0.916533
0.926062
1.00139
1.02591
1.04907
1.08584
1.11268
0.946254
0.958977
0.945285
0.946325
0.95457
0.949099
0.973687
0.965986
0.992033
1.15613
1.17654
0.806157
0.828109
0.839627
0.861549
0.873062
0.892919
0.909472
0.929308
0.945688
0.964032
0.983314
1.00307
1.03373
1.05827
1.10962
1.13611
1.22582
1.2405
0.97686
0.991811
1.0114
1.02752
1.05183
1.07392
1.11431
0.97226
0.976751
0.974613
0.973643
0.99298
0.981238
1.02188
1.00873
1.04181
1.11413
1.14405
1.31083
1.3364
1.22354
1.2177
1.2997
0.786536
0.805918
0.82244
0.841352
0.858985
0.877603
0.897737
0.915293
0.943139
0.963774
0.989214
1.00835
1.07652
1.09853
1.15154
1.1647
1.24388
1.26727
1.34972
1.38613
1.48058
1.49384
1.62826
0.999363
1.00867
1.02782
1.04396
1.06906
0.997958
0.999805
1.00858
1.00126
1.03386
1.01938
1.09376
1.06965
1.05299
1.07844
1.13812
1.14207
1.22526
1.25106
1.57238
1.36603
1.48793
1.3168
1.36263
0.775563
0.793403
0.813496
0.832515
0.853505
0.871501
0.894125
0.914434
0.935859
0.960988
0.991272
1.0328
1.16234
1.10673
1.22672
1.254
1.34798
1.3654
1.45057
1.67514
1.72221
1.74165
2.01126
2.04352
1.94708
2.09057
2.09351
2.81842
1.02165
1.03131
1.04777
1.06375
1.14623
1.118
1.02625
1.02336
1.04387
1.03341
1.09658
1.07438
1.05995
1.19813
1.16828
1.08895
1.12845
1.15944
3.65021
3.08126
5.68425
1.23206
1.23545
1.32366
1.35537
1.61081
1.64211
2.3052
1.93588
1.55248
1.61933
0.781336
0.795425
0.820583
0.836586
0.863038
0.879684
0.908908
0.928711
0.991585
0.9682
1.04725
1.07477
1.17004
1.18668
1.36353
1.36049
1.54444
1.55805
1.73427
1.76489
1.9481
22.6202
21.1764
12.5022
2.01018
2.23355
2.40845
2.67663
2.9504
3.09946
3.09188
11.6176
4.9312
1049.72
1328.26
1243.7
1827.84
1541.16
1655.99
1768.18
1837.14
1.04703
1.04918
1.07231
1.0864
1.14232
1.11815
1.05712
1.05061
1.10025
1.08146
1.07018
1.252
1.21984
1.18996
1.16376
1.10705
1.15403
1.25074
1.18743
1.24182
895.004
629.063
109.753
57.4899
25.05
2.45982
4.09475
5.38145
14.933
1.36628
1.37296
1.38274
1.37233
1.59753
1.6283
1.77898
1.70353
2.28929
961.189
1258.27
1472.69
1399.32
1619.77
1764.72
1798.31
1857.8
1809.52
1760.72
0.872339
0.83845
0.903352
0.891548
0.949625
0.942001
1.00009
0.996068
1.05261
1.05073
1.12021
1.11897
1.23842
1.26884
1.31878
1.33534
1.18221
1.45549
1.26769
1.32068
2.81045
2.80588
3.38474
3.80895
3.72331
58.3129
94.0421
300.461
182.497
56.4168
39.2075
6.33436
8.38102
12.1598
11.4187
36.1402
16.7989
14.8437
390.142
930.565
614.501
675.452
956.013
1183.38
1309.88
1303.25
1608.31
1596.71
1606.1
1519.23
1823.4
1883.23
1918.12
1741.71
1891.04
1811.83
1.07565
1.07597
1.097
1.11303
1.14477
1.12134
1.10973
1.09198
1.08169
1.30377
1.26924
1.23593
1.20897
1.18381
1.1606
1.12812
1.1739
1.18069
1.24282
1.24849
1.30999
1.2399
185.287
492.074
331.463
848.215
525.159
92.1961
198.274
70.5397
23.7488
1.373
17.4252
3.06209
6.26422
4.30617
1.54769
1.4823
1.66867
1.56375
1.70368
1.69512
1.93165
1.81035
3.07436
949.72
1332.34
846.903
1459.89
1649.82
1260.22
1490.22
1772.37
1777.63
1795.25
1615.36
1797.65
5.1671
1.15592
103.7
29.1472
2.41768
1.18263
1.78504
1.13435
1.48353
1.09073
1.32857
1.29273
1.24762
1.40457
1.37314
1.59997
2.28088
1.47828
2.75465
4.13776
4.22366
7.72264
22.285
8.6413
9.29267
39.2789
42.6598
14.8727
13.595
19.0645
19.9621
26.6715
28.301
122.066
185.425
344.734
238.045
132.725
83.7209
49.3142
54.208
99.0922
66.7137
73.002
608.482
480.469
648.885
963.305
854.278
1267.41
1172.31
1578.71
1415.68
1475.69
1678.41
1846.99
1774
1672.81
1856.46
1937.88
1945.45
1.13364
1.10419
1.10203
1.12192
1.14424
1.1257
1.11748
1.14612
1.3585
1.32211
1.28275
1.25211
1.22405
1.19715
1.1811
1.1587
1.40807
1.35052
1.40941
1.46357
1.42428
1.45733
1.19872
1.19442
1.20039
1.2256
1.38804
1.29645
1.33467
1.25627
505.825
397.261
234.306
35.6386
172.611
95.9812
1.47167
1.75524
1.68987
44.9742
4.37228
12.4944
7.73379
1.97873
1.8984
2.08026
2.00764
2.40667
2.09038
5.13547
465.935
1040.95
1313.73
901.563
645.978
1473.38
1207.01
1517.15
991.461
1797.27
1841.43
1923.74
1805.42
1664.9
222.332
246.235
59
11.5496
252.703
218.869
30.481
11.1158
21.3277
6.39239
13.483
4.23636
9.35188
2.36475
4.43128
10.1258
30.3289
18.405
37.2864
20.0365
26.5398
65.0568
101.771
111.551
56.915
53.9378
120.636
137.439
62.5549
70.1312
95.1493
96.223
126.464
103.592
402.434
215.662
290.833
268.956
210.855
189.654
238.918
141.076
220.583
715.424
527.233
1197.76
937.097
1045.66
1487.75
1333.62
1675.52
1590.66
1779.56
1720.69
1.43958
1.40581
1.131
1.14765
1.15067
1.13511
1.13309
1.15818
1.17549
1.32593
1.28102
1.2634
1.22852
1.21538
1.1898
1.18093
1.1628
1.3706
1.33305
1.3531
1.37932
1.33165
1.36311
1.19452
1.20194
1.21563
1.26315
1.51896
1.37707
1.40796
1.31022
91.7312
191.461
291.541
1.63532
1.93481
1.91697
2.30883
2.32226
23.7206
102.289
7.0891
21.617
2.57303
2.33368
3.96285
2.99881
8.20449
314.44
604.588
518.154
1137.91
1172.13
1387.33
1803.13
1940.57
1029.48
1657.27
2063.82
2001.26
2022.33
1875.08
223.092
198.744
102.369
249.115
231.554
290.706
234.675
151.638
319.669
395.974
225.171
107.489
175.434
66.7605
124.787
50.7587
66.0882
89.0532
64.3399
143.567
110.058
103.059
103.659
113.166
219.913
241.692
259.822
295.86
188.738
181.468
321.602
339.341
206.513
226.594
290.387
283.392
325.096
552.323
456.703
517.276
358.655
458.236
467.888
415.257
503.78
1028.9
827.363
1386.27
1239.59
1594.72
1516.08
1676.67
1611.36
1.48239
1.42109
1.37562
1.34152
1.16717
1.16243
1.16396
1.17335
1.19274
1.29984
1.27313
1.24798
1.22828
1.20858
1.19441
1.18643
1.2969
1.31642
1.27663
1.30357
1.27943
1.30285
1.2089
1.20834
1.23749
1.33229
1.25228
1.21326
1.68026
1.52398
1.54355
1.41807
1.81599
234.41
140.702
2.21101
2.20653
2.57697
2.49875
3.53397
4.04529
2.50917
26.6632
127.294
31.9619
9.88199
6.24273
28.5261
588.014
389.355
1299.02
1036.74
1762.29
1889.4
2168.36
2181.21
2255.93
2141.89
6.55522
33.2145
256.843
280.87
64.4781
236.922
310.729
252.148
417.654
447.114
256.888
338.186
455.186
436.252
454.395
299.521
376.813
278.172
242.548
228.059
388.348
291.002
400.986
332.493
340.437
455.467
503.153
503.171
531.525
448.682
427.717
379.669
594.369
611.946
472.946
491.758
631.935
628.648
821.001
927.418
805.231
768.216
834.082
745.623
807.034
1283.3
1180.84
1453.34
1385.04
1492.7
1430.55
0.890137
1.61778
1.49827
1.4598
1.41379
1.35988
1.32535
1.29072
1.18195
1.18248
1.18261
1.18471
1.21467
1.26211
1.24562
1.22513
1.21245
1.19958
1.23192
1.25322
1.23239
1.25517
1.24466
1.26405
1.21277
1.2707
1.28536
1.43186
1.25545
1.28169
1.92453
1.60164
1.68187
1.449
2.26376
2.70387
2.83272
461.92
188.018
2.9161
2.46592
8.87349
4.67877
41.5725
34.8999
23.625
142.657
231.741
81.0976
1261.17
781.299
1932.04
1711.79
2234.56
2286.68
2499.98
2454.12
3.30303
20.3748
254.258
394.879
41.0671
148.936
413.958
329.855
325.701
438.776
344.939
274.498
602.007
411.692
540.989
576.297
579.23
583.889
581.528
505.478
496.691
622.391
596.2
604.512
625.723
752.506
708.91
724.511
731.244
747.711
717.593
856.395
645.35
696.689
875.837
836.889
790.209
804.205
931.343
930.873
1010.44
1012.32
1199.09
1053.72
1070.32
1306.97
1251.32
1303.45
1258.47
0.781614
0.83668
0.892882
1.51413
1.46198
1.44294
1.40826
1.39154
1.35813
1.31211
1.25437
1.28782
1.38025
1.40434
1.19864
1.1866
1.17922
1.18028
1.21528
1.1953
1.19122
1.20151
1.21511
1.20603
1.22689
1.22245
1.23847
1.22624
1.26131
1.31498
1.40521
1.45506
1.34314
1.83781
2.3144
1.59833
1.91039
2.57562
3.71447
2.82901
3.94273
7.57049
1.93773
913.573
535.004
38.1284
14.8081
152.539
87.6671
402.052
712.176
301.332
1810.78
1576.77
2277.14
2394.07
2706.47
2717.59
2.41969
12.8048
215.283
451.592
24.6315
97.8876
464.623
483.318
258.627
289.769
473.272
335.309
544.263
478.406
267.309
344.057
668.441
503.13
566.554
538.417
624.414
679.405
678.033
631.827
661.334
719.874
704.629
707.889
857.038
807.032
771.096
755.747
704.805
847.186
869.544
953.212
892.912
901.873
974.596
988.374
956.797
969.437
999.545
1016.46
1188.93
1141.98
1053.63
1180.29
1155.53
0.769998
0.79108
0.822677
0.890187
0.933463
1.4474
1.36857
1.35775
1.33361
1.33292
1.23058
1.27681
1.25672
1.3049
1.33148
1.31988
1.30181
1.32665
1.28939
1.28725
1.24438
1.2459
1.23094
1.19015
1.18803
1.18899
1.19275
1.22315
1.18834
1.19731
1.20446
1.21103
1.20837
1.22415
1.22852
1.26134
1.3556
1.29548
1.42627
1.58236
1.53323
1.68583
2.19889
2.73768
1.90676
2.29926
3.27683
5.0122
15.2284
10.8984
9.41907
21.6178
76.2122
66.3967
1702.11
1158.8
336.122
313.107
800.442
1244.66
767.661
2235.87
2431.3
2772.83
2943.73
1.95314
7.67177
163.988
428.397
14.3018
57.5537
439.838
556.648
313.468
255.459
544.098
424.442
359.271
293.958
242.549
246.847
564.115
543.06
306.532
428.588
351.353
433.539
542.394
627.281
607.742
596.807
558.873
567.562
511.565
708.484
705.167
591.544
515.919
543.269
530.355
719.318
766.91
974.429
1007.56
1004.37
985.635
990.873
1011.48
1029.58
987.059
994.21
1.31892
0.778937
0.7861
0.806128
0.833535
0.868025
0.933535
0.978295
0.801628
0.799772
0.834673
0.8262
0.874249
0.857844
1.20022
1.21132
1.15692
1.16987
1.10959
1.12645
1.05899
1.08127
0.918381
0.896823
0.964384
0.938616
1.01128
1.03398
0.984117
1.29945
1.28969
1.27294
1.28008
1.24858
1.23758
1.26401
1.25785
1.25578
1.24176
1.26506
1.21756
1.22071
1.17621
1.18212
1.22964
1.19309
1.20969
1.19148
1.20774
1.21014
1.20641
1.21315
1.21315
1.22395
1.23405
1.23272
1.23215
1.22905
1.326
1.25575
1.48554
1.37575
1.5725
1.8309
1.72767
2.0433
2.70219
3.87065
2.41661
3.06776
4.50518
13.5986
163.028
101.13
194.194
42.8624
177.411
459.232
571.044
2268.31
1832.25
1136.74
1839.58
1212.1
2813.43
2895.82
1.53969
4.90299
413.397
102.321
196.378
8.67978
34.798
563.435
596.207
367.38
280.734
588.948
457.161
638.76
238.561
235.138
227.403
422.487
366.651
215.421
255.266
283.488
236.711
375.735
438.212
399.185
355.211
375.464
329.606
388.104
315.687
400.751
254.025
337.24
237.571
321.368
552.367
990.558
950.065
683.04
938.681
895.083
1.23615
0.974336
1.01859
0.812889
0.821315
0.846419
0.87924
0.917775
0.831007
0.833074
0.857461
0.856409
0.891301
0.885113
1.13584
1.1485
1.0966
1.11239
1.05475
1.07228
1.01248
1.03277
0.931218
0.918576
0.970564
0.993206
0.954542
1.24802
1.23879
1.22896
1.24432
1.23655
1.20137
1.20682
1.19661
1.21977
1.16453
1.17085
1.12433
1.13403
1.23046
1.23152
1.23088
1.2426
1.23526
1.24233
1.24463
1.23724
1.24771
1.26794
1.25057
1.25271
1.24852
1.37842
1.30115
1.31063
1.63763
1.45784
1.74713
2.20387
2.08189
2.58864
3.54816
7.70939
3.1712
4.95914
9.88011
73.8272
582.935
736.111
513.479
752.9
198.722
631.192
1116.2
1423.71
1926.71
2962.76
2283.51
1.38879
2.19902
4.31914
234.593
483.926
58.1704
143.031
14.7093
543.083
662.116
344.318
251.186
633.891
390.958
665.252
623.294
511.589
508.023
197.484
214.839
283.72
247.458
179.393
191.876
201.325
179.887
237.743
264.185
251.504
223.483
214.548
199.233
170.662
160.186
142.632
124.368
166.024
118.625
708.505
194.787
506.663
2929.46
1.02228
1.09724
0.92641
0.984971
0.848517
0.863834
0.894114
0.863325
0.866569
0.883836
0.885385
0.911754
0.909877
1.08792
1.10111
1.05078
1.06884
1.01263
1.03248
0.977519
0.999203
0.945001
0.967246
0.936253
1.20964
1.2082
1.20322
1.19717
1.15771
1.17084
1.16293
1.19195
1.1228
1.13472
1.08865
1.10001
1.2324
1.21776
1.25799
1.24804
1.32396
1.29715
1.33993
1.32897
1.28126
1.29536
1.34725
1.30335
1.27895
1.37904
1.29803
1.29841
1.5255
1.51699
1.84113
1.82202
2.6102
2.47092
3.95692
2.98156
5.62955
18.1485
4.42455
8.08705
52.1355
252.583
502.192
1296.64
1412.28
1180.73
1228.78
1610.26
1973.07
2232.21
29.2994
1.17857
1.21847
2.02636
2.71719
8.84304
376.862
91.5724
184.878
625.167
436.689
230.091
299.215
634.169
654.348
319.834
410.412
664.109
607.626
527.142
419.937
171.519
194.331
187.614
178.24
153.368
157.355
152.091
152.946
156.302
166.767
118.731
122.029
95.7455
96.1649
85.7722
82.9674
112.608
84.2613
1.00113
1.06043
0.890939
0.912734
0.955915
0.897294
0.913225
0.913517
0.917
0.933376
0.934147
1.05517
1.07046
1.01967
1.04267
0.989867
1.01106
0.96125
0.983513
0.95814
1.20658
1.18318
1.18136
1.18426
1.12978
1.14634
1.17927
1.14623
1.09631
1.11461
1.06783
1.08325
1.26458
1.24105
1.24015
1.30476
1.27986
1.41873
1.40565
1.39384
1.42676
1.54871
1.49911
1.5039
1.46526
1.43857
1.37205
1.33862
1.51338
1.45127
1.56271
2.04385
1.79941
3.35366
3.47505
2.42839
3.2725
5.4181
5.82764
23.7948
73.2488
19.4705
202.008
414.489
744.41
1415.48
1955.05
1970.31
2306.2
8029.69
136.911
1.10181
17.5044
45.7564
1.22078
1.30143
1.37947
2.23884
3.12118
7.94793
372.785
258.463
642.181
584.214
200.736
254.1
699.559
679.936
276.622
367.982
641.904
560.217
427.579
146.729
170.527
125.896
129.96
129.497
119.652
103.217
106.031
86.0012
89.7217
80.5177
81.766
79.479
82.2339
1.05163
0.934808
0.980171
1.01472
1.02586
0.932356
0.953085
0.943931
0.951765
0.957946
0.959411
1.03391
1.05669
1.00774
1.03023
0.981682
1.00503
0.980609
1.06156
1.17894
1.17788
1.18504
1.16164
1.13986
1.11594
1.18842
1.11465
1.09515
1.09131
1.25951
1.22233
1.28779
1.32948
1.33366
1.4143
1.40435
1.5576
1.59891
1.65679
1.63116
1.8541
1.84031
1.78109
1.59394
1.55451
1.75557
1.71626
1.89081
1.87973
2.63007
2.54279
6.41459
6.5965
6.16012
4.67117
35.5153
26.0765
263.387
163.59
596.267
766.186
1117.63
1992.77
272.194
80.8982
134.766
1.26192
1.17002
12.4282
38.519
1.35131
1.61469
2.1967
2.65687
7.93956
550.804
429.717
715.211
694.829
176.614
232.084
728.943
653.243
532.448
418.06
274.626
125.227
145.496
97.9007
107.164
104.579
86.4642
90.1938
84.3641
84.9545
85.9998
87.6843
1.11703
1.18074
0.983504
0.998276
1.07176
1.14032
0.976376
0.990921
0.977236
0.990054
0.989299
0.995699
1.05683
1.03962
1.01759
1.03432
1.01198
1.25358
1.09514
1.0789
1.07861
1.1692
1.17912
1.14509
1.23452
1.18692
1.15805
1.12809
1.34407
1.33125
1.425
1.39264
1.51194
1.50726
1.72156
1.67234
1.92251
2.02105
2.51789
2.33827
2.2151
1.99725
1.91837
2.09208
2.08841
2.42235
2.49352
2.46499
5.33014
4.23381
38.5912
12.8417
17.6296
10.2589
285.289
155.668
750.274
519.714
1064.12
942.839
417.525
191.995
282.813
63.0104
124.038
1.43973
1.27599
11.8935
32.5071
2.61024
1.53369
5.39479
676.744
581.309
757.7
774.667
237.935
173.915
144.466
736.616
544.137
440.081
309.749
254.385
102.061
116.779
87.1476
91.0287
85.7338
85.5747
90.9559
89.4937
1.21567
1.32802
1.02767
1.08478
1.14363
1.25067
1.02503
1.05341
1.03578
1.01042
1.04911
1.04776
1.08203
1.05604
1.07411
1.33077
1.28686
1.14468
1.12967
1.14663
1.13446
1.19881
1.26804
1.18053
1.20524
1.17393
1.52435
1.51691
1.44914
1.6587
1.62382
1.87716
1.994
1.94511
2.34755
2.28523
4.18479
3.20538
3.31155
2.99734
2.82417
2.71158
3.85078
3.84732
3.7478
3.38698
6.44748
23.1188
16.2736
200.344
89.8773
93.7362
586.287
408.888
961.948
783.757
342.164
538.43
645.34
163.804
314.257
48.7784
114.628
1.46026
1.83788
7.5733
31.1509
2.02154
4.61695
794.952
768.138
795.319
775.641
851.048
149.882
174.927
115.958
660.54
503.27
333.867
280.198
171.017
87.3784
97.3394
85.3407
83.4543
91.4548
88.6032
1.3717
1.5638
1.10305
1.16752
1.25604
1.4241
1.11186
1.08626
1.14867
1.14382
1.14106
1.13666
1.12925
1.42702
1.32279
1.19926
1.21052
1.18023
1.23732
1.31055
1.25803
1.31349
1.25224
1.85165
1.75976
1.71763
1.57717
2.28735
2.59518
2.39752
2.6126
2.96497
2.79565
3.89701
3.33208
4.93046
5.43414
5.37331
3.65974
8.25883
8.52054
6.59249
76.0404
38.2973
201.352
183.63
507.772
398.973
798.95
707.451
365.539
547.734
677.048
165.427
323.569
45.0291
113.815
2.50476
1.84205
7.93555
5.34039
24.0852
672.097
890.055
880.481
889.925
814.791
863.987
702.759