/*--------------------------------*- C++ -*----------------------------------*\
  =========                 |
  \\      /  F ield         | OpenFOAM: The Open Source CFD Toolbox
   \\    /   O peration     | Website:  https://openfoam.org
    \\  /    A nd           | Version:  8
     \\/     M anipulation  |
\*---------------------------------------------------------------------------*/
FoamFile
{
    version     2.0;
    format      ascii;
    class       volScalarField;
    location    "19000";
    object      k;
}
// * * * * * * * * * * * * * * * * * * * * * * * * * * * * * * * * * * * * * //

dimensions      [0 2 -2 0 0 0 0];

internalField   nonuniform List<scalar> 
4109
(
0.0294937
0.0310431
0.029742
0.0310134
0.0317424
0.0314663
0.0319627
0.03015
0.0330108
0.0325449
0.0325708
0.0333186
0.0298507
0.0316902
0.032409
0.0337109
0.0334961
0.03351
0.0338681
0.0325536
0.0299015
0.0313737
0.0314109
0.0345923
0.0346237
0.0350341
0.0295909
0.0316263
0.0298769
0.0348557
0.0335083
0.0328086
0.0313972
0.0312891
0.0322226
0.0351654
0.0350532
0.0361743
0.0318925
0.0298499
0.0315742
0.0317704
0.0302768
0.0355139
0.0341216
0.095427
0.0481558
0.0334854
0.0329016
0.031251
0.0322431
0.0358538
0.0366373
0.0379046
0.0336113
0.0317936
0.0293649
0.031897
0.0323665
0.0331435
0.0328804
0.121511
0.0367272
0.035103
0.034444
0.0418705
0.0870289
0.0337479
0.0327678
0.0324806
0.0393813
0.0373379
0.0425474
0.0413715
0.0411864
0.0341539
0.0340536
0.0326719
0.0311592
0.0328954
0.0325822
0.0329289
0.0334803
0.0336149
0.0384336
0.0452595
0.100166
0.131055
0.132425
0.0379105
0.0375049
0.0358032
0.0351129
0.0345487
0.0382827
0.0665308
0.0337304
0.0325639
0.0427003
0.0410166
0.0398859
0.0429949
0.043713
0.0432582
0.0434024
0.0352868
0.0347659
0.0339333
0.0321081
0.0341325
0.0388435
0.0333687
0.0338817
0.0341181
0.034674
0.13823
0.052752
0.0664657
0.0893321
0.140027
0.137584
0.0432909
0.0397092
0.0385823
0.036838
0.0361073
0.0354206
0.0344098
0.0668942
0.0344531
0.033817
0.043123
0.0417124
0.0448116
0.0440366
0.0455689
0.0443332
0.0359681
0.0356529
0.0355741
0.0337213
0.0348158
0.039995
0.0339473
0.0345554
0.0350242
0.0352688
0.124884
0.0735092
0.140785
0.0934717
0.143844
0.0504076
0.0405643
0.0394826
0.0376553
0.0368704
0.0361797
0.0354487
0.0343828
0.0614651
0.0330332
0.0426388
0.0412535
0.0456743
0.0437598
0.046447
0.0468461
0.0476455
0.0371338
0.036614
0.0363299
0.0345558
0.035801
0.0412162
0.0347744
0.0354559
0.0356977
0.0363703
0.0857626
0.156876
0.088457
0.147545
0.147774
0.0511735
0.038783
0.0397309
0.0378945
0.0361473
0.0370802
0.0356146
0.0673005
0.0339075
0.0409557
0.0420216
0.0451887
0.0433404
0.0464316
0.0480914
0.0477229
0.0507254
0.0379034
0.0376176
0.0376499
0.0361747
0.0360484
0.0414377
0.0355041
0.0361264
0.0367111
0.0370908
0.0883306
0.15848
0.154138
0.0931452
0.157232
0.0507847
0.0388934
0.0400826
0.0375248
0.0364929
0.0688119
0.0349686
0.0411787
0.0424252
0.0445454
0.0436488
0.0459791
0.0480246
0.0491898
0.051137
0.053491
0.0391801
0.0385743
0.038398
0.0372314
0.0369129
0.0424655
0.0370112
0.0362538
0.0400883
0.0375824
0.0382753
0.0849205
0.16647
0.0967942
0.161554
0.163444
0.0516327
0.0392032
0.0399783
0.037898
0.0722154
0.0353521
0.0415112
0.0424203
0.0449574
0.0439934
0.0463103
0.0473383
0.0495491
0.0514384
0.0529531
0.0570317
0.0401948
0.0393393
0.0387303
0.0410629
0.0372228
0.0428867
0.0374982
0.0414014
0.0391362
0.0387238
0.173624
0.084645
0.168913
0.100559
0.173573
0.0522306
0.178178
0.0390001
0.0403526
0.0738783
0.036156
0.0414863
0.042675
0.0450576
0.0440032
0.0466198
0.0476818
0.0489256
0.0514042
0.0533722
0.0562288
0.0566062
0.0607034
0.0393254
0.0407661
0.0390695
0.0422313
0.042458
0.0379197
0.0437193
0.0391343
0.0404115
0.0397641
0.0849985
0.181544
0.175617
0.0991214
0.179889
0.0529469
0.192185
0.184677
0.201925
0.165711
0.185362
0.156429
0.0883273
0.0370693
0.040317
0.0423383
0.0432151
0.0439458
0.045434
0.0467574
0.0477075
0.0491797
0.0578432
0.0504672
0.0532129
0.0559856
0.0613238
0.0648614
0.0632742
0.0693733
0.0416363
0.0411542
0.0434469
0.0438745
0.0414032
0.039233
0.0452264
0.0398999
0.0409902
0.0875176
0.194301
0.181053
0.0528761
0.291805
0.259642
0.201859
0.172462
0.195364
0.221414
0.0754763
0.0759825
0.0811417
0.159978
0.149359
0.151417
0.148046
0.159317
0.150561
0.0387264
0.045233
0.0452827
0.0459865
0.0606697
0.0470051
0.0479487
0.0493294
0.0507211
0.0577031
0.0522391
0.0552907
0.0651246
0.0617056
0.0681427
0.0678822
0.0765104
0.0808355
0.0429086
0.0436708
0.0450706
0.0450186
0.0427835
0.0421231
0.0402972
0.0449241
0.0414816
0.0915415
0.218445
0.302446
0.258241
0.177273
0.194673
0.221846
0.0795141
0.0814118
0.0869646
0.0826626
0.085638
0.132774
0.139184
0.139541
0.147218
0.160072
0.240425
0.119262
0.0441254
0.0474634
0.0471607
0.0600608
0.0611583
0.0491738
0.0491163
0.0506094
0.0523905
0.05714
0.0540081
0.0657927
0.0637523
0.0692208
0.0721347
0.0768433
0.0786503
0.0456585
0.0449447
0.0423631
0.0475729
0.0465223
0.0439286
0.0434544
0.0497167
0.0429092
0.041791
0.0498562
0.097335
0.294377
0.324317
0.260233
0.176716
0.19758
0.225335
0.0820357
0.0895074
0.0979474
0.087682
0.0919248
0.122685
0.10927
0.0871524
0.0904033
0.129305
0.137202
0.147586
0.158635
0.257701
0.211415
0.0650557
0.0491777
0.0496754
0.0593154
0.0612047
0.0502859
0.0506704
0.0523627
0.0541236
0.0560351
0.0663927
0.0639626
0.0696927
0.0728347
0.0749041
0.0782349
0.0475254
0.0496678
0.0476117
0.0438727
0.043934
0.0454458
0.0467594
0.0447534
0.0509279
0.0485202
0.169979
0.222124
0.0434372
0.0412712
0.304913
0.257193
0.255513
0.326934
0.265677
0.17739
0.199507
0.230036
0.0861815
0.0808368
0.0934813
0.0994576
0.0972087
0.107371
0.118065
0.0920539
0.0961632
0.127289
0.134558
0.147115
0.162411
0.318307
0.273428
0.319646
0.0649571
0.0524517
0.0511499
0.0581017
0.0604347
0.0523505
0.0522428
0.0538896
0.0560982
0.0628431
0.0655458
0.0683769
0.0715453
0.07466
0.0773511
0.0791724
0.05073
0.0507087
0.0453181
0.0450457
0.0462647
0.0476403
0.0493121
0.0529671
0.0500676
0.0451154
0.0510873
0.0557104
0.31422
0.260681
0.243283
0.192409
0.191702
0.331402
0.261553
0.17987
0.190323
0.209855
0.0906919
0.0845431
0.0826235
0.117015
0.102104
0.106039
0.0975871
0.101434
0.125649
0.133304
0.149907
0.164021
0.0870547
0.350451
0.329275
0.35295
0.0777351
0.0551274
0.0538549
0.0581752
0.0604453
0.0540304
0.0539128
0.0560533
0.0628485
0.0654781
0.0682847
0.0713625
0.0739964
0.0759228
0.0790992
0.0798322
0.0532129
0.054194
0.0469656
0.046971
0.0482613
0.0496738
0.0508926
0.0548004
0.0517955
0.0508242
0.0469149
0.047902
0.311106
0.166955
0.230566
0.222495
0.192826
0.334703
0.262779
0.175032
0.195203
0.215467
0.241861
0.0956993
0.0839856
0.0893884
0.0840318
0.103494
0.114226
0.108682
0.12574
0.138973
0.152621
0.160453
0.0879441
0.386936
0.371468
0.405664
0.0809136
0.059083
0.0559647
0.0604228
0.0579751
0.0560392
0.0561969
0.062665
0.0653808
0.0709956
0.06797
0.0733245
0.0758572
0.0759436
0.0787374
0.0821517
0.056871
0.056096
0.0573878
0.0489199
0.0487301
0.0508966
0.0524992
0.0535602
0.0530926
0.0487642
0.0504373
0.316673
0.255876
0.144123
0.150031
0.205882
0.197877
0.174268
0.271596
0.331827
0.178324
0.194489
0.211276
0.236283
0.101053
0.0855576
0.0936483
0.0868775
0.0896802
0.110237
0.114315
0.106576
0.127834
0.140724
0.150769
0.164765
0.11428
0.425825
0.426262
0.439895
0.092708
0.0628312
0.0580678
0.0606819
0.0582863
0.058018
0.0632399
0.0653627
0.0704024
0.0681896
0.0741608
0.0760722
0.0781836
0.0808137
0.0838559
0.060124
0.0598697
0.0596107
0.0555849
0.0509801
0.0510868
0.0525645
0.0534746
0.0544421
0.0507346
0.0545786
0.332287
0.280528
0.242757
0.220205
0.125446
0.133328
0.147221
0.189091
0.178081
0.162938
0.112964
0.273096
0.326601
0.331985
0.177865
0.194801
0.22557
0.211583
0.099395
0.0881184
0.0924775
0.0893792
0.112206
0.119609
0.105151
0.165273
0.130088
0.137725
0.152394
0.113179
0.473197
0.482293
0.505454
0.0599288
0.0994556
0.0645873
0.0611478
0.0607653
0.066695
0.0651656
0.0716397
0.0720622
0.0693425
0.0750061
0.0783803
0.0814369
0.0646472
0.0625502
0.0620266
0.0576443
0.0568251
0.0527314
0.0522501
0.0541413
0.0559709
0.052582
0.0562121
0.0689927
0.0741641
0.276864
0.245261
0.214982
0.196168
0.120339
0.135278
0.150085
0.170769
0.160963
0.108479
0.0999264
0.0926451
0.0825023
0.0790683
0.316712
0.265745
0.316411
0.271536
0.166291
0.179113
0.192034
0.220965
0.0985759
0.0905874
0.0934057
0.120369
0.112729
0.105503
0.102385
0.152049
0.151899
0.129711
0.141208
0.136877
0.561968
0.530059
0.526597
0.0666821
0.101093
0.063177
0.0643508
0.0721649
0.0683714
0.0746815
0.0773103
0.0802709
0.0648863
0.0643759
0.059975
0.0586213
0.0573937
0.0549058
0.0544396
0.0561992
0.060782
0.0546785
0.0761813
0.0696918
0.0729739
0.240222
0.219898
0.193322
0.175527
0.120687
0.137632
0.147274
0.15429
0.11371
0.0996839
0.102293
0.0776867
0.0909418
0.0802071
0.0844412
0.270057
0.251219
0.237679
0.216712
0.160549
0.174382
0.199627
0.149446
0.0968164
0.0934655
0.117314
0.108098
0.113227
0.106384
0.100771
0.142453
0.14388
0.130359
0.109761
0.615751
0.595962
0.586125
0.0835048
0.105973
0.067384
0.0611362
0.0717546
0.0755901
0.0788871
0.0673075
0.0623843
0.0612879
0.0601526
0.0581436
0.0566672
0.0559436
0.0586219
0.0562865
0.0741112
0.0703321
0.211557
0.215162
0.197772
0.17387
0.157331
0.127472
0.135488
0.140605
0.116536
0.110487
0.102395
0.078811
0.0817585
0.0956394
0.0849412
0.0893226
0.224162
0.214856
0.211726
0.196732
0.140615
0.162656
0.171076
0.151435
0.194424
0.0963315
0.12077
0.11463
0.111044
0.10422
0.0994697
0.123612
0.130032
0.131213
0.115799
0.730917
0.687121
0.732932
0.133447
0.0708366
0.0790708
0.0747128
0.0781533
0.0650864
0.063498
0.0619533
0.0605186
0.0588307
0.0584205
0.0597697
0.058753
0.0741441
0.0679301
0.194005
0.195429
0.176158
0.155573
0.1426
0.125506
0.129216
0.116374
0.108725
0.101897
0.0777907
0.0812213
0.0959921
0.0856277
0.0902391
0.196333
0.189997
0.172801
0.126195
0.132678
0.142127
0.150054
0.175249
0.112162
0.107061
0.101981
0.117577
0.11505
0.122635
0.126183
0.855468
1.17275
0.321274
0.0750201
0.0880387
0.0781149
0.0665036
0.0650156
0.0628517
0.0610203
0.0603375
0.0622019
0.0711032
0.0691893
0.175154
0.173412
0.156032
0.141084
0.130885
0.119481
0.111175
0.103882
0.0975483
0.0744834
0.0782483
0.0918788
0.0823183
0.0868735
0.171672
0.173264
0.15635
0.127904
0.133963
0.140934
0.12328
0.155992
0.108651
0.104317
0.112294
0.113359
0.118378
0.199012
1.66901
1.61428
0.579388
0.0801043
0.122176
0.0672455
0.0655821
0.0627095
0.0633864
0.06901
0.0726282
0.0706923
0.156781
0.156541
0.14143
0.129762
0.12095
0.112623
0.105219
0.0989907
0.0758741
0.079843
0.0932561
0.0837555
0.0884257
0.154182
0.154669
0.142085
0.125249
0.129737
0.118804
0.141626
0.106208
0.10896
0.109898
0.112766
4.05668
0.331569
2.33326
2.47985
1.16861
4.49715
0.0682296
0.0658028
0.0670722
0.0668071
0.077226
0.0734344
0.0713263
0.139985
0.140841
0.130337
0.120652
0.112196
0.10549
0.0990715
0.0773421
0.0806352
0.0940963
0.08502
0.088967
0.13751
0.137775
0.13022
0.119148
0.112973
0.127975
0.130351
3.27153
3.60123
0.636253
3.59975
3.58079
4.88536
3.967
6.43349
0.0691853
0.0659337
0.0704062
0.0706075
0.0943517
0.0744883
0.0709335
0.13114
0.130744
0.120701
0.112466
0.105464
0.0995873
0.0780783
0.0817625
0.094423
0.089892
0.0856633
0.129611
0.122246
0.113346
0.120803
0.12326
0.122457
2.21221
2.86046
3.18049
1.20807
4.51388
3.48137
6.19978
6.25904
0.070938
0.0705045
0.0754143
0.13501
0.075358
0.07157
0.11844
0.118977
0.11166
0.104913
0.0994222
0.0779733
0.0825347
0.094641
0.0904025
0.0862712
0.122343
0.115437
0.116252
0.11843
0.116892
0.116214
1.93727
1.8094
2.49648
2.78397
3.44192
5.86276
4.10789
3.02863
5.86345
6.05941
0.073159
0.0746842
0.080308
0.0744932
0.0754619
0.0775516
0.114041
0.106965
0.102066
0.0968117
0.0814783
0.0818165
0.093736
0.0890157
0.0867671
0.115173
0.112629
0.113614
0.1119
0.110958
1.52357
1.47745
2.16396
2.39507
6.31132
2.98056
5.59507
5.42182
3.68318
2.58965
5.49491
5.85209
0.0749055
0.0774255
0.0775025
0.0788068
0.0819797
0.109998
0.105375
0.101391
0.0970383
0.0836364
0.0848371
0.0936752
0.0902975
0.0875765
0.109164
0.10728
0.105298
6.14504
1.1936
1.20098
1.84525
1.98291
5.89602
2.58183
5.25531
5.15499
4.96534
3.23826
2.1312
5.09614
5.64052
0.0772141
0.0780765
0.0802059
0.0816225
0.104231
0.102421
0.0998777
0.096754
0.0841733
0.0862861
0.0938317
0.0910668
0.0885803
6.72996
5.5716
0.93385
0.961243
1.51148
1.46814
5.43232
2.22684
5.10349
4.80232
4.70468
4.49127
2.74399
1.57426
4.65406
5.42213
7.71696
6.19551
5.00211
0.725553
0.737593
1.09829
0.598971
4.94394
1.8898
4.96086
4.68323
4.35592
4.24487
3.98904
2.11197
0.670411
4.12933
5.19119
8.45702
7.31823
5.61868
4.43884
0.54871
0.491794
0.398221
4.4301
1.55548
3.49726
4.65089
4.26061
3.91304
3.7649
3.42558
1.04653
3.41791
9.87228
7.9915
6.84963
5.00486
3.87351
0.367036
0.127276
3.86018
1.36407
2.74106
3.05128
4.32778
3.83793
3.4623
3.23614
2.71331
2.17231
11.1926
9.11865
7.55515
6.31342
4.36306
3.27777
0.0831663
3.12348
1.42684
2.37752
2.6296
3.98907
3.40449
2.97512
2.578
1.51251
11.8842
11.1965
8.24713
7.11894
5.67993
3.68165
2.56273
1.72014
1.30821
1.27811
2.05786
2.21897
3.62355
2.93442
2.37932
1.48392
12.1797
11.555
10.9894
7.35489
6.64374
4.90848
2.89189
1.35748
1.48534
1.19872
1.14329
1.76404
1.80815
3.20567
2.35855
1.39302
8.19701
12.1429
11.0023
10.5335
6.45779
6.0915
3.95763
1.65791
1.5976
1.38047
1.09212
1.01803
1.48131
1.38834
2.6678
1.41463
6.91056
8.08219
11.8264
10.2445
9.87985
5.55284
5.28131
2.57466
1.6092
1.48253
1.27298
0.984518
0.8958
1.19457
0.948736
1.76087
6.28299
6.61661
7.74883
11.234
9.30153
9.05256
4.81213
3.46511
1.5121
1.49313
1.36504
1.15975
0.870537
0.76308
0.869623
0.468585
6.29804
6.10003
6.19637
7.2506
10.4073
8.29923
8.02684
3.54784
1.33095
1.40529
1.37475
1.24213
1.03568
0.74017
0.587253
0.403887
6.85124
6.09778
5.78497
5.70277
6.63264
9.25257
7.27749
6.53065
1.42727
1.21904
1.2961
1.25102
1.10842
0.88961
0.56654
0.262908
8.06023
6.54378
5.77232
5.3799
5.15368
5.89845
7.74821
5.84142
2.64738
1.27947
1.11041
1.1813
1.1165
0.952135
0.690995
0.250286
12.0181
7.92359
6.12308
5.36251
4.90048
4.53956
4.98504
6.14625
3.54073
2.30462
1.14516
1.00097
1.05558
0.959379
0.74156
0.334342
11.7873
12.0206
7.5663
5.63356
4.88107
4.33922
3.8166
3.69461
4.9559
3.08141
1.99862
1.02015
0.884994
0.907657
0.747874
0.371168
11.1004
11.5008
11.7703
7.04299
5.08994
4.31856
3.6531
2.89398
5.13993
4.64479
2.64906
1.71426
0.897757
0.752488
0.706885
0.377016
9.72997
11.1092
10.9958
11.3085
6.39836
4.48219
3.63033
2.76249
5.23697
4.71766
4.32298
2.23273
1.43915
0.764244
0.576743
0.348487
8.40384
8.96545
10.9095
10.2889
10.6328
5.62522
3.75749
2.72992
5.56613
4.78095
4.29241
3.98438
1.81904
1.15967
0.587426
0.259311
7.78581
7.93377
8.0976
10.5002
9.47036
9.69975
4.69173
2.80395
5.85956
5.1266
4.33436
3.86756
3.61868
1.39807
0.842285
0.262835
6.75499
7.38204
7.48567
7.17691
9.87319
8.57726
8.27155
3.58518
6.65206
6.26599
5.42414
4.67829
3.89334
3.43186
3.19914
0.952096
0.383003
6.13719
6.21878
6.91622
7.01512
6.21123
8.97698
7.60655
5.67338
5.08224
6.4424
5.93833
4.97187
4.22049
3.44421
2.95775
2.65523
0.456146
6.24952
5.56198
5.63548
6.38915
6.51578
5.19653
7.65338
6.02922
3.40967
4.53507
4.68565
6.22487
5.56952
4.49927
3.74184
2.95734
2.37304
1.72599
5.84697
4.99022
5.01539
5.74353
5.93713
4.34535
5.36639
2.94586
2.06783
4.31058
4.02638
4.25841
6.00323
5.16714
3.99672
3.21288
2.36039
1.40393
2.44262
3.56291
5.39504
4.42551
4.37033
4.96655
5.136
3.17577
2.53896
1.63353
3.82476
3.54592
3.81491
5.7779
4.7176
3.43137
2.55269
1.35592
1.98658
3.1355
4.91505
3.86034
3.68713
4.00694
3.45007
2.18674
1.28417
3.37771
3.09113
3.34979
5.54636
4.18057
2.71232
1.43979
1.61987
2.74905
4.40828
3.26556
2.89626
2.62365
1.85778
1.00846
2.9579
2.64641
2.8323
5.30097
3.44676
1.48558
1.31482
2.3906
3.84273
2.55421
1.6744
1.55491
0.786445
2.54673
2.17964
2.16835
2.14596
1.05081
2.04471
3.11237
1.35867
1.3686
0.596496
2.11102
1.60601
1.04414
0.805828
1.68132
1.72986
0.399709
1.5681
0.662617
0.539091
1.23211
0.0959883
0.646734
0.148573
0.474837
0.0862871
0.084341
0.0856279
0.0856375
0.0870847
0.0868568
0.0875062
0.0875386
0.0882495
0.0827381
0.0838419
0.0842683
0.0854681
0.0857857
0.086933
0.0875458
0.0918812
0.0933124
0.0946471
0.0968912
0.0983381
0.0884445
0.0892436
0.0882736
0.0884319
0.0887418
0.0883793
0.0896063
0.089337
0.090377
0.101023
0.10218
0.0814157
0.0825202
0.0831421
0.0842319
0.0848572
0.0858043
0.0867988
0.0878894
0.0888484
0.0898277
0.0909298
0.0923045
0.0941235
0.095548
0.0986428
0.100128
0.105623
0.106373
0.0902313
0.0911043
0.0921595
0.093122
0.0944966
0.0959454
0.0983216
0.0896359
0.0900935
0.0896196
0.0896325
0.0905178
0.0898748
0.0918757
0.091356
0.0927016
0.0981484
0.0999641
0.110618
0.112288
0.104853
0.104607
0.109697
0.0804114
0.081437
0.082302
0.083311
0.0842611
0.0852603
0.0864642
0.0873953
0.0891248
0.0902112
0.0916814
0.0929487
0.0968849
0.0983133
0.101516
0.102627
0.107157
0.108418
0.113554
0.115699
0.122061
0.122172
0.129157
0.0910777
0.0918021
0.0927631
0.0937814
0.0952509
0.0908136
0.0910864
0.0911649
0.090853
0.0924217
0.0916466
0.09512
0.0940639
0.0933456
0.0956636
0.0993136
0.0995447
0.104582
0.106206
0.12578
0.113807
0.121447
0.110576
0.113478
0.0800086
0.0809384
0.0820806
0.0830781
0.084341
0.0852568
0.0867477
0.0876432
0.0892566
0.0902209
0.0924577
0.0945675
0.102684
0.0998656
0.106159
0.108627
0.113112
0.114598
0.119477
0.129212
0.134868
0.135709
0.149432
0.152052
0.145744
0.154279
0.154866
0.196021
0.0920559
0.0928139
0.0936338
0.0945893
0.097469
0.096225
0.0920967
0.0921329
0.092779
0.0923016
0.0952382
0.0942257
0.0934811
0.0996736
0.0983497
0.0959516
0.0983937
0.100292
0.248552
0.214694
0.307425
0.104696
0.105005
0.110549
0.112792
0.127385
0.129479
0.165372
0.1446
0.121914
0.127961
0.0807294
0.0813209
0.0829449
0.0835467
0.08535
0.0858791
0.0878797
0.0885811
0.091805
0.0910491
0.095383
0.0967021
0.101612
0.103922
0.11341
0.111613
0.12088
0.129706
0.136693
0.137465
0.149312
0.714124
0.702156
0.493666
0.162289
0.171105
0.186388
0.192681
0.202503
0.21781
0.218413
0.491216
0.292872
6.43686
7.00348
6.85442
6.54145
7.16356
7.18552
6.95691
6.58417
0.0931956
0.0935563
0.0945591
0.0954935
0.0971855
0.0961145
0.0934788
0.093297
0.0952796
0.0944604
0.093942
0.1019
0.100516
0.0992003
0.0980618
0.0967063
0.0996343
0.105656
0.101572
0.104958
6.03571
5.06814
1.86193
1.31905
0.772576
0.174867
0.249508
0.30551
0.564842
0.112762
0.113146
0.114136
0.113698
0.125809
0.127904
0.139722
0.136089
0.164195
6.22918
6.92019
4.54359
7.1442
7.20583
7.19039
5.44582
6.07997
6.16825
7.17462
0.0869446
0.0845285
0.0886631
0.0873096
0.0910654
0.0900608
0.0936932
0.0935199
0.0966577
0.0964151
0.100479
0.100444
0.108251
0.11112
0.116748
0.115734
0.121465
0.146918
0.124652
0.159771
0.211171
0.203541
0.247638
0.248799
0.243988
1.27982
1.78619
3.4199
2.48492
1.29559
0.996401
0.356773
0.394856
0.498979
0.505161
1.02133
0.596089
0.579987
3.88658
6.05867
4.96654
5.26923
6.15808
6.68962
6.92257
6.91557
4.97652
4.92446
7.12872
7.08264
5.57459
5.79461
6.38381
7.02003
6.60021
6.96513
0.0944606
0.0946744
0.0955553
0.0968509
0.0972286
0.0962144
0.0957139
0.0950037
0.0946375
0.103986
0.102515
0.101115
0.0999382
0.0988843
0.0978917
0.0975097
0.100508
0.100881
0.10479
0.105293
0.109647
0.104591
2.68323
4.52687
3.52996
5.91362
4.61571
1.67616
2.70589
1.43464
0.753017
0.113072
0.609609
0.200244
0.348251
0.256089
0.12338
0.12023
0.129077
0.124268
0.13218
0.13093
0.149117
0.143215
0.200445
6.24634
7.08783
5.94641
4.28841
4.70117
3.6518
7.32347
7.4274
7.24758
5.99574
4.52765
5.61528
0.188887
0.103206
2.10965
0.646738
0.135775
0.105396
0.124294
0.105216
0.119363
0.104654
0.117846
0.112413
0.10988
0.121425
0.120463
0.14305
0.176016
0.165019
0.201396
0.28331
0.252497
0.33666
0.661676
0.377492
0.407504
0.903112
1.02962
0.552078
0.485774
0.65588
0.633639
0.798707
0.799522
1.92825
2.54654
3.68252
2.97784
2.08533
1.51553
1.16526
1.16954
1.75743
1.31092
1.42945
4.93828
4.32165
5.15441
6.16908
5.86746
6.84961
6.64565
7.10551
7.01175
7.05422
5.21967
5.77627
6.98981
7.00407
6.84518
6.81284
6.51192
0.0976848
0.0956962
0.0957572
0.0966028
0.0971998
0.0964497
0.0961673
0.0983376
0.106113
0.104606
0.103011
0.101721
0.100582
0.0994377
0.0988004
0.0978644
0.108095
0.10574
0.107976
0.110326
0.108803
0.110229
0.101442
0.10134
0.101777
0.103439
0.114028
0.10831
0.110019
0.105433
4.62922
4.09874
3.03561
0.983906
2.53523
1.74127
0.119539
0.132889
0.131658
1.09829
0.262772
0.5611
0.3647
0.144193
0.139793
0.152541
0.148546
0.176073
0.165147
0.276801
4.41619
6.61364
7.22261
6.23307
5.30827
7.45541
3.35633
3.9048
2.72581
7.66196
7.44986
6.6659
5.50153
3.99909
4.7381
4.74112
1.19307
0.340577
4.56653
3.58399
0.68652
0.335003
0.521606
0.254479
0.40153
0.216275
0.342329
0.182587
0.247536
0.445987
0.779815
0.555027
0.96276
0.620876
0.758247
1.34617
1.6719
1.82992
1.18524
1.19731
1.86081
2.0937
1.24455
1.37525
1.67292
1.58396
1.95967
1.67434
3.94897
2.76602
3.31096
3.143
2.68351
2.53663
2.90858
2.18994
2.70114
5.38833
4.52421
6.74395
6.05936
6.3683
7.07491
6.97271
6.92099
7.00094
6.52556
6.61304
0.10997
0.108458
0.0970657
0.0982451
0.0975379
0.0969996
0.0970138
0.0985757
0.0997022
0.104782
0.102922
0.102217
0.10075
0.100235
0.0991504
0.0988473
0.098096
0.106734
0.104837
0.105984
0.107102
0.105414
0.106762
0.101128
0.10172
0.10304
0.10565
0.120854
0.113503
0.114685
0.108693
1.79928
2.65264
3.52844
0.129588
0.142662
0.141378
0.163935
0.159352
0.78428
1.83947
0.360416
0.709507
0.19875
0.182733
0.27416
0.236352
0.369657
3.59646
5.12939
4.76336
6.87875
6.98529
7.36282
7.79141
7.71965
2.65446
3.6015
7.40829
6.47109
5.72594
4.05165
4.76336
4.77065
2.08693
4.79456
5.1165
5.63872
3.79033
2.39494
5.78654
6.27722
3.38027
1.73725
2.62085
1.2312
2.01858
1.02308
1.35961
1.58017
1.20686
2.18779
1.79527
1.73101
1.70372
1.8257
2.77649
2.87095
2.9991
3.31601
2.53542
2.37387
3.40255
3.59098
2.57459
2.82574
3.30463
3.11553
3.49679
4.70711
4.18892
4.54794
3.71751
4.26354
4.23148
3.98997
4.4106
6.37105
5.70615
6.97047
6.81789
6.91117
6.92578
6.35191
6.45614
0.111828
0.109318
0.107507
0.106011
0.0985784
0.09843
0.0987403
0.0995382
0.100674
0.103867
0.102439
0.101764
0.100651
0.100238
0.0994199
0.0994637
0.103702
0.104573
0.103088
0.104272
0.103446
0.104478
0.102078
0.102164
0.104005
0.109975
0.105692
0.102602
0.130489
0.121549
0.122583
0.115443
0.138602
3.15817
2.29798
0.154906
0.151585
0.184866
0.179402
0.263942
0.313028
0.249658
0.790965
2.07724
0.956494
0.499551
0.417535
0.863086
5.0787
4.23321
7.38297
6.75871
7.96108
7.84719
7.56314
7.28713
6.88254
6.53777
0.210602
0.705949
4.68028
5.55241
1.28313
3.89434
5.77811
5.47018
6.30827
6.05823
5.52901
6.20887
5.92854
5.31231
5.3735
3.55645
4.28987
3.29617
2.92007
2.89784
4.23707
3.34008
4.18586
3.5152
3.69376
4.28956
4.65815
4.60086
4.71077
4.25135
4.11748
3.76087
4.91978
5.09255
4.25947
4.44547
5.11516
5.01044
5.81466
6.07975
5.63451
5.50586
5.80964
5.48518
5.69659
6.82101
6.7012
6.68307
6.72441
6.07268
6.17584
0.0882668
0.109328
0.112428
0.111046
0.109207
0.106993
0.105569
0.104043
0.09964
0.0998203
0.100172
0.100277
0.102635
0.102369
0.101657
0.10091
0.10042
0.100059
0.101264
0.102194
0.101461
0.102485
0.102115
0.103026
0.102247
0.106254
0.107071
0.11621
0.105184
0.106721
0.142476
0.126323
0.130035
0.117133
0.159474
0.186299
0.168441
4.47237
2.79446
0.249287
0.210078
0.489363
0.407339
1.21311
1.04713
0.886733
2.33057
3.05946
1.65888
7.34072
6.22742
8.093
8.20905
7.95456
7.56039
7.10197
6.7456
0.148018
0.453599
4.1087
6.35629
0.844949
2.38459
6.33681
6.15556
5.94286
6.54578
6.072
5.58294
6.94265
6.237
6.87159
6.45775
6.04468
6.03667
5.64036
4.70231
4.7538
5.93683
5.41726
5.16841
5.39508
5.61137
5.49958
5.75629
5.68183
5.63634
5.58208
5.88741
5.13194
5.41429
5.92292
5.9108
5.63847
5.73407
6.03612
6.0762
6.29365
6.22851
6.63623
6.40248
6.38113
6.46153
6.51001
5.76716
5.92004
0.0812983
0.0851187
0.0894529
0.108491
0.111028
0.110167
0.108877
0.108317
0.106996
0.105156
0.102738
0.104171
0.107606
0.108723
0.101438
0.100387
0.0997168
0.0998972
0.100681
0.0999315
0.0998272
0.100272
0.100896
0.100628
0.101576
0.101466
0.102139
0.10306
0.105532
0.108831
0.114504
0.117227
0.110811
0.139038
0.163107
0.125751
0.142463
0.177356
0.231702
0.201041
0.251821
0.390061
0.285069
6.4091
5.35224
1.12025
0.821011
2.52807
1.97434
4.3839
5.801
3.95207
8.41024
8.36407
8.4981
8.01762
7.69712
7.1876
0.132956
0.320705
3.27311
6.21656
0.559948
1.58619
6.09936
6.91298
5.33415
5.50435
6.67881
5.91882
6.84423
6.61162
5.2508
5.76538
6.50702
6.38542
6.50631
6.22889
6.43502
5.79607
5.99378
6.12457
6.12146
5.87724
5.92117
5.76598
5.79619
5.75973
5.65379
5.70007
5.57786
5.42399
5.41722
5.94664
5.93563
5.96712
5.85127
6.00696
5.95786
5.98476
5.8671
5.99548
6.23252
6.29563
6.00664
5.58513
5.75053
0.0798506
0.0815236
0.0836218
0.0882436
0.0915862
0.1076
0.107288
0.106747
0.105892
0.105941
0.101945
0.103819
0.103085
0.104861
0.105327
0.105129
0.104386
0.105593
0.103394
0.103374
0.101401
0.101474
0.103492
0.100558
0.100018
0.100393
0.100161
0.101776
0.100291
0.100535
0.100848
0.101112
0.101416
0.101964
0.102342
0.105714
0.11141
0.107694
0.115454
0.124487
0.12217
0.130427
0.158471
0.182963
0.142561
0.161812
0.21119
0.277958
0.677854
0.612252
0.482345
0.912486
1.83738
1.79799
8.61331
7.7822
4.25681
4.43233
6.74616
7.91584
6.74927
9.19674
8.70596
8.47007
8.02932
0.125524
0.245661
2.48002
5.11479
0.387064
1.08149
5.20521
7.04072
5.64776
5.15748
6.79145
6.34769
5.66361
5.30643
4.96192
4.94011
6.01051
6.12605
5.20818
5.65343
5.40151
5.83871
5.75963
5.79523
5.78941
5.42199
5.45123
5.01481
5.0021
4.89222
5.17016
4.7734
4.62975
4.06488
3.69966
4.36689
4.45233
5.39135
5.81349
5.81675
5.30358
5.40212
5.45341
5.40787
5.04269
5.47727
0.104913
0.0799022
0.0807009
0.0819056
0.0839166
0.0863104
0.0905648
0.0940829
0.0809471
0.0809738
0.0825056
0.0822594
0.0844163
0.0837404
0.0994837
0.0998617
0.0976154
0.0980873
0.0956134
0.0962182
0.093458
0.094258
0.086642
0.0856734
0.088993
0.0876983
0.0912483
0.0921055
0.0898988
0.104495
0.103983
0.103446
0.103806
0.102818
0.102498
0.103224
0.102315
0.102511
0.101934
0.103083
0.100439
0.100736
0.098546
0.0988951
0.102416
0.100982
0.102222
0.100843
0.1016
0.101813
0.101609
0.101807
0.102012
0.102693
0.103012
0.103096
0.102795
0.103465
0.10928
0.105127
0.118765
0.112467
0.123726
0.137637
0.132539
0.148934
0.186395
0.235097
0.167927
0.200866
0.291637
0.634599
3.16061
2.39187
3.23282
1.46501
3.14104
5.22127
6.02697
9.54484
9.41747
8.34062
9.47942
8.52979
9.66706
8.84815
0.118658
0.196256
4.6085
1.7175
2.76478
0.286208
0.75274
6.18856
6.87952
5.79504
5.2049
6.58347
6.13345
6.62713
4.77331
4.68332
4.68901
5.27871
5.18845
4.42669
4.66447
4.68003
4.42976
4.85229
4.99539
4.53549
4.47189
4.07625
4.01879
3.53981
3.60945
3.83244
2.86454
2.8775
2.57344
2.58364
3.31438
4.8583
4.73305
3.61391
4.17997
4.02272
0.105001
0.0928091
0.0963859
0.0817879
0.0827033
0.0843189
0.0865995
0.0892398
0.082602
0.0829247
0.0837888
0.0838495
0.0852596
0.0851763
0.0966906
0.0972925
0.0948327
0.0956539
0.0928281
0.0938449
0.0907285
0.0920256
0.0870419
0.0866909
0.08879
0.0901214
0.0883471
0.102436
0.101959
0.10172
0.102488
0.102298
0.100005
0.100502
0.100096
0.10115
0.0982451
0.0987096
0.0964144
0.0969364
0.102126
0.102778
0.102458
0.104147
0.103578
0.103977
0.104325
0.103831
0.104638
0.10574
0.104368
0.104616
0.104146
0.112445
0.107893
0.108362
0.12697
0.117303
0.133919
0.156757
0.151194
0.177462
0.208729
0.422336
0.204687
0.27503
0.614937
1.98551
6.16399
6.89917
6.06369
7.31035
3.95749
6.79885
8.47544
9.42245
10.4172
10.1898
10.2429
0.116113
0.146413
0.201438
2.9236
4.90777
1.11606
2.17706
0.445417
5.46925
6.40794
5.35446
4.77203
5.88374
5.50215
6.33776
6.47717
6.05853
5.81056
4.21264
4.3655
4.39339
4.2883
3.94381
4.01381
3.92847
3.81743
3.96295
3.987
3.62789
3.60149
3.11155
3.19173
2.53066
2.64744
2.095
2.14645
1.90782
1.82294
3.29192
1.83747
2.80775
4.94069
0.096047
0.101974
0.089352
0.0930921
0.0839005
0.0852539
0.0871871
0.0845421
0.0849136
0.085459
0.0855408
0.0866516
0.0866526
0.0947542
0.0953831
0.0931137
0.0938997
0.0913907
0.0922768
0.08976
0.090807
0.088204
0.0893013
0.0879223
0.10093
0.100875
0.100873
0.100672
0.0982255
0.0990551
0.098776
0.100148
0.0965681
0.0972839
0.0949501
0.0956691
0.102735
0.102123
0.104914
0.103949
0.109265
0.107569
0.110355
0.109461
0.106665
0.107689
0.110616
0.108397
0.106325
0.112142
0.107604
0.107722
0.121186
0.120588
0.139354
0.137184
0.174952
0.171547
0.232733
0.197738
0.317411
0.726493
0.261647
0.399661
1.72406
4.21676
6.44781
9.49273
9.57091
9.58322
9.76906
10.711
10.6698
10.9656
0.709101
0.105766
0.109842
0.138901
0.180582
0.334338
3.99346
1.61575
2.42638
5.61028
4.40941
4.3739
4.83355
5.62525
6.04335
4.82459
5.30259
6.14284
6.0872
5.61305
5.1877
3.78877
3.97597
3.62136
3.6396
3.52902
3.54845
3.41325
2.95363
3.22987
3.19764
2.44864
2.63795
1.98455
2.15577
1.6366
1.75712
1.49816
1.47357
0.0938882
0.097377
0.0864689
0.0881783
0.0909651
0.0862995
0.0877691
0.0870141
0.0874332
0.0878744
0.0879426
0.093334
0.0942506
0.0916772
0.0929247
0.0903374
0.0914924
0.0890373
0.0902301
0.0890406
0.101338
0.0999624
0.100114
0.100505
0.0973037
0.0981383
0.0998358
0.098254
0.0957119
0.0966618
0.0943774
0.0951853
0.105275
0.104024
0.104052
0.107982
0.106117
0.114915
0.114256
0.113486
0.115834
0.122451
0.119661
0.120139
0.117326
0.116246
0.11235
0.110095
0.12013
0.116744
0.123324
0.147108
0.136953
0.216528
0.217185
0.170269
0.202914
0.311385
0.31417
1.00242
2.03193
0.892212
3.80866
5.7784
7.69175
10.4295
11.7995
11.534
11.4775
1.49629
2.00876
0.0999429
0.538718
1.0286
0.107848
0.112059
0.119025
0.154972
0.195692
0.317277
3.90109
3.15453
5.57904
5.13497
3.91081
4.2756
5.87298
5.97456
4.28945
4.80381
5.75776
5.58943
4.93951
3.37367
3.55625
2.95519
3.10185
3.11388
2.9644
2.52391
2.65801
2.09082
2.27476
1.75618
1.8974
1.43176
1.60799
0.0965683
0.0890885
0.0922185
0.0943471
0.0946809
0.0884548
0.0900455
0.0886777
0.0895393
0.0893463
0.0896052
0.0927245
0.0938909
0.0916056
0.0925776
0.0904045
0.0914576
0.0903344
0.0943908
0.100275
0.100002
0.101444
0.0992535
0.0981084
0.0970251
0.1017
0.0971246
0.0962067
0.0961253
0.105105
0.103394
0.106927
0.109551
0.109696
0.114795
0.113559
0.123171
0.125327
0.128374
0.127288
0.140542