/*--------------------------------*- C++ -*----------------------------------*\
  =========                 |
  \\      /  F ield         | OpenFOAM: The Open Source CFD Toolbox
   \\    /   O peration     | Website:  https://openfoam.org
    \\  /    A nd           | Version:  8
     \\/     M anipulation  |
\*---------------------------------------------------------------------------*/
FoamFile
{
    version     2.0;
    format      ascii;
    class       volScalarField;
    location    "19000";
    object      nut;
}
// * * * * * * * * * * * * * * * * * * * * * * * * * * * * * * * * * * * * * //

dimensions      [0 2 -1 0 0 0 0];

internalField   nonuniform List<scalar> 
4109
(
0.000666267
0.000661151
0.000658994
0.000666503
0.000669122
0.000677728
0.000672308
0.000677834
0.000675094
0.000656933
0.000666836
0.000678393
0.000667751
0.000671225
0.000676896
0.000677629
0.000666107
0.000673771
0.00067917
0.00067574
0.000660309
0.000678075
0.000675373
0.000678083
0.000673687
0.000668146
0.000656731
0.00067273
0.000677494
0.000681392
0.000677358
0.00067659
0.000669907
0.000671165
0.00067748
0.000682464
0.000673898
0.000667084
0.000666977
0.000669979
0.000667242
0.000662829
0.000674092
0.000681481
0.000678126
0.00148322
0.000834799
0.000677923
0.000677392
0.00066401
0.000673181
0.000677458
0.000676978
0.000672719
0.000675933
0.000660844
0.000660632
0.000678153
0.0006766
0.000669559
0.000675954
0.00196304
0.000684656
0.000680092
0.000679294
0.0007418
0.00123258
0.000678716
0.00067353
0.00066074
0.000671611
0.000678935
0.000689437
0.000677356
0.000679782
0.000673366
0.000670788
0.00066779
0.000647702
0.00067512
0.000679322
0.000679845
0.000675682
0.00066859
0.000726799
0.000741598
0.00152907
0.00193121
0.00194671
0.000684497
0.000685493
0.000680569
0.000680244
0.00068043
0.000680317
0.000942867
0.000676796
0.000663066
0.00069215
0.000686003
0.000682332
0.000686539
0.000692451
0.000684845
0.000673051
0.000676274
0.000674389
0.000666183
0.000657596
0.000678675
0.000652024
0.000680808
0.000680679
0.00067707
0.000670756
0.00210041
0.000824549
0.000993166
0.00126654
0.00196999
0.00201149
0.000668987
0.000687798
0.000689215
0.000682885
0.000682043
0.000681575
0.000676994
0.000937147
0.000657079
0.000665115
0.000692982
0.000689521
0.000694141
0.000692902
0.000681226
0.000689443
0.000676548
0.000673692
0.000672319
0.000659625
0.000677557
0.000682125
0.000681497
0.000682114
0.000678208
0.000671105
0.00175807
0.00102442
0.00194713
0.00131184
0.00201097
0.000801818
0.000690524
0.000688852
0.000683249
0.000682933
0.000682979
0.000681023
0.00066557
0.000818514
0.000635774
0.000694228
0.000690487
0.000696296
0.000694303
0.000695497
0.000696317
0.000680837
0.000679214
0.000677014
0.000671035
0.000655697
0.000680034
0.000674294
0.000683537
0.000683208
0.00067896
0.000673501
0.00118975
0.0022769
0.00121379
0.00194069
0.0019962
0.000750773
0.000685815
0.000686142
0.000684843
0.00068279
0.000684422
0.000668604
0.000860106
0.000634042
0.000688896
0.000689207
0.000697156
0.000692025
0.000697555
0.000700321
0.000691743
0.000685023
0.000679233
0.00067684
0.00067336
0.000662511
0.000682541
0.000676127
0.000684285
0.000684252
0.000681518
0.0006736
0.00116462
0.00214292
0.0019818
0.0011713
0.00202818
0.000748281
0.000685986
0.00068805
0.000685623
0.000671571
0.000858356
0.000647799
0.000689095
0.000691109
0.000692439
0.000692303
0.000695298
0.000700714
0.000698417
0.000702046
0.00068664
0.000682457
0.000679883
0.00067491
0.000659753
0.00068527
0.000672532
0.000685586
0.00068589
0.000682371
0.000683523
0.000676451
0.00109807
0.00216707
0.00120797
0.00196817
0.00201448
0.000727722
0.000688585
0.000688749
0.000679212
0.000857229
0.000655258
0.000692144
0.00069162
0.000694055
0.000695813
0.000695599
0.000695854
0.000701318
0.00070361
0.000696693
0.000693042
0.000682293
0.000678404
0.000666227
0.000683507
0.000688396
0.000674543
0.000687144
0.000685074
0.000676338
0.000685539
0.00218374
0.00104765
0.00198913
0.00118722
0.00204014
0.000725564
0.000782843
0.000674348
0.000680934
0.000851136
0.00065708
0.000692621
0.000690042
0.000694584
0.000698564
0.000699208
0.00069712
0.000698764
0.000704659
0.000703081
0.000707616
0.000698337
0.000692275
0.000662491
0.000680377
0.000675025
0.000684954
0.000685324
0.000692617
0.000673973
0.000690215
0.000679521
0.000687188
0.00101673
0.00217102
0.00196081
0.00114786
0.0020152
0.000712814
0.000754227
0.000791965
0.000796536
0.000776138
0.000781047
0.000789428
0.000933739
0.000657995
0.000630109
0.000676563
0.000661396
0.000688514
0.000694438
0.000701275
0.000696714
0.000699048
0.000710218
0.000699522
0.000705478
0.000710252
0.000707384
0.000699009
0.000706458
0.000701032
0.000673305
0.000677399
0.000686292
0.000688454
0.000679284
0.000694705
0.000677246
0.000691019
0.000689165
0.000986016
0.00223373
0.00196226
0.000704696
0.000781649
0.000845627
0.000776562
0.000788894
0.000787184
0.000805403
0.000707786
0.000723057
0.000731182
0.000762507
0.000766352
0.000739405
0.000774973
0.000783626
0.00147096
0.000617699
0.00060111
0.000642128
0.000694913
0.000712885
0.00069793
0.000699944
0.000702225
0.000700739
0.000709239
0.000702444
0.000709218
0.000715881
0.00071441
0.000708488
0.000719718
0.000730565
0.000729091
0.000666375
0.000682993
0.000689835
0.00068867
0.000682667
0.000690363
0.000696158
0.000674278
0.000694434
0.000954652
0.00237005
0.000812917
0.000817778
0.000783554
0.000782797
0.000801207
0.000722358
0.000710015
0.000739573
0.00072885
0.00073474
0.000743961
0.000750938
0.00078008
0.000773021
0.000771031
0.00251453
0.00108338
0.000550394
0.00061697
0.000684841
0.000713753
0.000713381
0.000700475
0.000704156
0.000700361
0.000702779
0.00070872
0.000703469
0.000718359
0.000718383
0.000723985
0.000723503
0.000728303
0.000726314
0.00067846
0.000685221
0.000693821
0.000693995
0.000691276
0.000682441
0.000692461
0.000696406
0.000699831
0.000700016
0.000676569
0.00098228
0.000792404
0.000845205
0.000813598
0.000783767
0.000789003
0.000800714
0.000729181
0.000719264
0.000725845
0.00073684
0.000740067
0.000740451
0.000729982
0.000732529
0.000734725
0.000755152
0.000775065
0.000770398
0.000767088
0.00240659
0.00188765
0.000629078
0.000630267
0.0006829
0.000713236
0.00071153
0.000699834
0.000703763
0.000705577
0.000704536
0.000706444
0.000716621
0.000717352
0.00072241
0.000722517
0.000722847
0.000726497
0.000672548
0.000695166
0.000691415
0.0006966
0.000697503
0.000685975
0.000685736
0.000693737
0.000697295
0.000689702
0.0015061
0.00177959
0.000703754
0.000651926
0.000816201
0.0008158
0.000834058
0.000843411
0.000818474
0.000779392
0.000787528
0.000804595
0.000732342
0.000729804
0.000734656
0.00074018
0.000749291
0.000738791
0.000754095
0.000735516
0.0007412
0.000764273
0.000759209
0.000770821
0.000774489
0.00278732
0.00217934
0.00237064
0.00059171
0.000604261
0.000676028
0.000707724
0.000710786
0.000703376
0.000708562
0.00070566
0.000706809
0.000712341
0.000715506
0.000717361
0.000720665
0.000723511
0.000728441
0.000729592
0.000686518
0.000689663
0.00070427
0.00069706
0.000696096
0.000696621
0.000699745
0.000705148
0.000689766
0.000692915
0.000650535
0.000609131
0.000833277
0.000811154
0.000822821
0.000772177
0.000753121
0.000853262
0.000810039
0.000783689
0.000786126
0.000799478
0.000735317
0.000733734
0.000732548
0.000762816
0.00074474
0.000749484
0.000739535
0.000741817
0.000760119
0.000755396
0.000767055
0.000773012
0.000721672
0.00285009
0.00248802
0.00250335
0.000636185
0.00060058
0.000674869
0.000708724
0.000711171
0.000707912
0.000700744
0.000709742
0.000713253
0.000715882
0.000718168
0.000720999
0.000724378
0.000726663
0.000730681
0.000732652
0.000677462
0.000699524
0.000701347
0.00070218
0.000701213
0.000703283
0.000702603
0.000701552
0.000690968
0.000698237
0.000698533
0.000682298
0.000833755
0.000762114
0.000775929
0.000825512
0.000768338
0.000858778
0.000806156
0.000785537
0.000791953
0.000800142
0.000808147
0.000738785
0.000736165
0.000736588
0.000732746
0.000742885
0.000752132
0.000748784
0.000759373
0.000764204
0.00077204
0.000772974
0.000699768
0.00290576
0.00258051
0.00264878
0.000610337
0.000589561
0.000668027
0.000714169
0.000709997
0.000712516
0.000707618
0.000714456
0.000718744
0.000723482
0.000719201
0.000724659
0.00072971
0.00072924
0.000734193
0.000737179
0.000690587
0.0006943
0.000709379
0.000707814
0.000704253
0.000705804
0.000709921
0.000693728
0.000695727
0.000699242
0.000655382
0.00082534
0.000807001
0.000754352
0.000745641
0.000768304
0.000808853
0.000760515
0.000818821
0.00084857
0.000783231
0.000794061
0.00079613
0.000809212
0.000741998
0.000737881
0.0007391
0.00073897
0.000738733
0.00074731
0.000747499
0.000745284
0.000756144
0.000765072
0.000775426
0.00077977
0.000797139
0.0029375
0.00277252
0.00267251
0.000639321
0.000581241
0.000682168
0.000715726
0.000712734
0.000705269
0.000715765
0.000719124
0.000722538
0.000720519
0.000726678
0.000731714
0.000734374
0.000735653
0.000738373
0.000685476
0.000706242
0.000708059
0.000694955
0.000708172
0.000706523
0.000708098
0.000704476
0.000699446
0.000700361
0.000650394
0.000845329
0.000821365
0.000823159
0.000792267
0.000736472
0.000737744
0.000751785
0.000773107
0.000801711
0.000773511
0.000735647
0.000829516
0.00083731
0.000849638
0.000782745
0.000796472
0.000798009
0.000798372
0.000743635
0.000740387
0.000737116
0.000738385
0.000747728
0.000753438
0.000746811
0.000783374
0.000761238
0.000761566
0.000773242
0.000721276
0.00298148
0.00287852
0.00282618
0.000682561
0.000613325
0.000593658
0.000721206
0.000712276
0.00072261
0.000718752
0.000725871
0.000726003
0.00072307
0.00073246
0.000734354
0.000735738
0.000700274
0.000704206
0.00071307
0.000697666
0.000700463
0.000712303
0.00070751
0.000709266
0.000715087
0.000700222
0.000645631
0.000694303
0.000705103
0.00082477
0.000810524
0.000811036
0.00078288
0.000733993
0.00075163
0.000771076
0.000765716
0.000792585
0.000723135
0.00072049
0.000719677
0.000711725
0.000703351
0.000833502
0.00081418
0.000830032
0.000815876
0.000786427
0.000785195
0.000787096
0.000784132
0.000745601
0.000741332
0.000743364
0.000755038
0.00075122
0.000749793
0.00074309
0.000772467
0.000772577
0.00076588
0.000769388
0.000862397
0.00308138
0.00301819
0.00266218
0.000600175
0.000588954
0.000716566
0.000668506
0.000733371
0.000721288
0.000731015
0.000734069
0.000737604
0.000699794
0.000716519
0.000699384
0.000702589
0.000708991
0.000713348
0.000710727
0.000712196
0.000647715
0.000700402
0.000704605
0.000705744
0.000704582
0.000810358
0.000803001
0.000801587
0.000773699
0.000731446
0.000758601
0.000788226
0.000758369
0.000739198
0.000722786
0.000722326
0.000714225
0.000711871
0.000701136
0.000712633
0.000819153
0.000851431
0.000813152
0.000820597
0.000772633
0.000775945
0.000779164
0.000764174
0.000744146
0.000743613
0.00075278
0.000747537
0.000753148
0.000748821
0.000747914
0.000773077
0.000774199
0.000764009
0.000600767
0.00301891
0.00303557
0.00271979
0.000584607
0.000576676
0.000739597
0.0010434
0.000729144
0.000734086
0.000737333
0.000726354
0.000701943
0.000705363
0.000719139
0.000713343
0.00071711
0.000710646
0.000668242
0.00070948
0.000715242
0.000722546
0.000798206
0.000800707
0.000795473
0.000791689
0.000765053
0.00076085
0.000779182
0.000751578
0.000743675
0.000753169
0.000736905
0.000726932
0.000734466
0.000729807
0.00072856
0.000729323
0.0007805
0.00080262
0.000785539
0.000810352
0.000764549
0.00076335
0.000772526
0.000767059
0.000786337
0.0007447
0.000759009
0.000754338
0.000753462
0.000751402
0.000747542
0.000761087
0.000763733
0.000762832
0.000652153
0.00316708
0.00311494
0.00308884
0.000521791
0.000730761
0.000623753
0.000737315
0.0007396
0.000704123
0.000706801
0.000713763
0.000716704
0.000718302
0.000715132
0.000681463
0.000709611
0.000731107
0.000706684
0.000796965
0.000794569
0.000788689
0.000778046
0.000756886
0.000774881
0.000746095
0.000767532
0.000764999
0.00075651
0.000736836
0.000740971
0.000751557
0.000743503
0.000747355
0.000811957
0.000786015
0.000803335
0.000757013
0.000755443
0.000762665
0.000778092
0.000778296
0.000754647
0.000751564
0.00074788
0.000756304
0.000753959
0.000752845
0.000541605
0.00315473
0.00451742
0.000982423
0.000747264
0.00062489
0.000742941
0.000710469
0.000723583
0.000717953
0.000724025
0.000714953
0.000687637
0.000709299
0.000711613
0.000785508
0.000782357
0.000777861
0.000770986
0.000751427
0.000740671
0.000736378
0.000731843
0.000728246
0.000711949
0.000714869
0.000724374
0.000717777
0.00072109
0.000778717
0.000794244
0.000788784
0.00075298
0.000759068
0.000774433
0.000752274
0.000774513
0.000752665
0.000748298
0.000751739
0.000750803
0.000752074
0.000756664
0.00543138
0.00515432
0.00141576
0.000765294
0.000573625
0.000718993
0.000721465
0.000716381
0.00072021
0.000692803
0.000715807
0.000728339
0.00078169
0.000783999
0.000769992
0.000762461
0.000745371
0.000741587
0.000736439
0.000733801
0.000716941
0.000721389
0.000729071
0.000722717
0.0007273
0.000768413
0.000776975
0.000780054
0.000761136
0.000763823
0.000753084
0.00076916
0.000747995
0.000747101
0.000746549
0.000749367
0.00112689
0.000979682
0.00628727
0.00682914
0.00239319
0.00122805
0.000722932
0.00072001
0.000727592
0.000725506
0.000632112
0.000724663
0.0007265
0.000766126
0.000767333
0.000764502
0.000760206
0.000752361
0.000751606
0.000743994
0.000733394
0.000730727
0.000744563
0.000738681
0.000737047
0.000768885
0.000764094
0.000769744
0.000759114
0.000750434
0.000753618
0.000760966
0.000871564
0.000966686
0.00155616
0.00833674
0.0082422
0.00135776
0.00103471
0.00190871
0.00072432
0.000722461
0.000726677
0.000734774
0.000564482
0.000728245
0.000724396
0.000769562
0.000767398
0.000759356
0.000754433
0.000749872
0.000746371
0.000731887
0.00073398
0.000742773
0.000739921
0.00073696
0.000766272
0.000765846
0.000757014
0.000754801
0.00075496
0.000758227
0.000576008
0.000754671
0.000793167
0.00245661
0.00119623
0.000836328
0.00188682
0.00179718
0.000728772
0.000725081
0.000749314
0.000536673
0.000730773
0.000726191
0.000755613
0.000757067
0.000754633
0.000749544
0.000747145
0.000729114
0.000736722
0.000742528
0.000741542
0.000736524
0.000765151
0.000762563
0.000749423
0.000763756
0.000750748
0.000752232
0.000473548
0.000481759
0.000625505
0.000612651
0.000562093
0.00184241
0.00099638
0.00063872
0.00161902
0.00166797
0.000729455
0.00073695
0.000767462
0.00073245
0.000731862
0.000731434
0.000756101
0.000749953
0.000748684
0.000743728
0.000737027
0.000732882
0.000743407
0.000739525
0.000737736
0.000760135
0.000748738
0.000759778
0.00074732
0.000747855
0.00037464
0.000387165
0.000487803
0.00043201
0.00163632
0.000407107
0.00191217
0.00153346
0.000776426
0.000447338
0.00133268
0.00152386
0.000725603
0.000745391
0.000731104
0.000733568
0.000735268
0.000750788
0.000749786
0.000749186
0.000745053
0.000737954
0.000737587
0.000743934
0.000740862
0.00073996
0.000755117
0.000745848
0.000742821
0.00138573
0.000288038
0.000294385
0.000346599
0.000258377
0.00141387
0.000280793
0.00197266
0.00159875
0.00122109
0.00055075
0.000267535
0.00103008
0.00136438
0.000739043
0.000729014
0.000735011
0.000731129
0.000740001
0.000742354
0.00074542
0.000743555
0.000736355
0.000737011
0.000743286
0.000740253
0.000740384
0.00140433
0.0011532
0.000214316
0.000204303
0.000207652
0.000103094
0.00116625
0.000184116
0.0020284
0.00164688
0.00128524
0.000922168
0.000332118
0.000108731
0.00072786
0.00118282
0.00166808
0.00114094
0.000939119
0.000150933
0.000119891
8.13976e-05
7.24907e-06
0.000908333
0.000109788
0.00223965
0.00169698
0.00132345
0.000980141
0.000643974
0.000138632
8.72189e-06
0.000443093
0.000977868
0.00198417
0.00134292
0.000922199
0.000734586
9.27022e-05
4.46532e-05
4.63548e-06
0.000653075
5.7689e-05
0.00125541
0.00194714
0.00136934
0.00100909
0.000691529
0.000393019
1.45474e-05
0.000197806
0.00276922
0.00155783
0.00105636
0.000727741
0.000534642
3.76779e-05
1.52104e-06
0.000408041
3.12268e-05
0.00113318
0.000963706
0.00160764
0.00105061
0.00071221
0.000426885
0.000178176
3.37919e-05
0.00417853
0.00216843
0.00120488
0.000813286
0.000540908
0.000341865
1.08537e-06
0.000186949
0.00141742
0.000947414
0.000716632
0.00124649
0.000746507
0.000440603
0.000196613
2.72915e-05
0.00427405
0.0036431
0.00163181
0.00091088
0.00060345
0.000358478
0.000162513
2.63215e-05
0.00183981
0.00121074
0.000772531
0.000507294
0.000886738
0.000465202
0.000204855
3.2099e-05
0.00532764
0.00350879
0.00304095
0.00117562
0.000658932
0.000410202
0.000182424
2.42967e-05
0.00217773
0.00146718
0.00100064
0.00060484
0.000331428
0.000550651
0.000218681
3.50831e-05
0.00461688
0.00437209
0.00272049
0.00239705
0.000806612
0.000451684
0.000227791
3.48771e-05
0.00236272
0.00172914
0.00112093
0.000785359
0.000441661
0.000187987
0.000260359
3.95291e-05
0.00399224
0.00394017
0.00326577
0.00197052
0.00177543
0.000508058
0.000274867
6.33683e-05
0.00238551
0.00187166
0.00131698
0.000808138
0.000560847
0.00028544
7.84665e-05
5.33496e-05
0.00381805
0.00335541
0.00329922
0.00213872
0.0013119
0.00120544
0.00028463
9.61636e-05
0.00222806
0.00189038
0.00142249
0.000947962
0.000533818
0.000326995
0.000130728
1.52156e-05
0.00377048
0.00320386
0.00268498
0.00268329
0.00119628
0.000805232
0.000701838
0.000121562
0.00186881
0.00177236
0.00143747
0.001022
0.000626243
0.000301699
0.000124396
1.38436e-05
0.0039291
0.00316332
0.00256952
0.00202943
0.00210576
0.00054969
0.00045574
0.000266301
0.00142729
0.00149031
0.00135219
0.00103346
0.000674089
0.000354725
0.000117245
9.38825e-06
0.0043778
0.00327612
0.00253562
0.0019516
0.00141725
0.001497
0.000197806
0.000232871
0.00109243
0.00121613
0.00113908
0.000975078
0.000682229
0.000381309
0.000139626
9.39436e-06
0.00527746
0.00364305
0.00261081
0.00192491
0.00137199
0.00087471
0.000719224
5.08988e-05
0.00125139
0.000913517
0.00100257
0.000821978
0.000645288
0.00038636
0.000150524
1.31709e-05
0.00434459
0.00457075
0.00290409
0.00196923
0.00135224
0.000852296
0.000429131
0.000148433
0.00220867
0.000961943
0.000746225
0.000784768
0.000543507
0.000366316
0.000152847
1.51734e-05
0.00424295
0.00363932
0.00381562
0.00217
0.0013739
0.000838607
0.000418705
0.000124575
0.00202468
0.00191169
0.000713184
0.000585217
0.00055806
0.000307639
0.000144953
1.56539e-05
0.00261986
0.0036869
0.00291074
0.0030545
0.00148404
0.000846751
0.000410342
0.000120089
0.00194527
0.00168952
0.00157265
0.000503694
0.000427462
0.000324367
0.000120222
1.42486e-05
0.00189702
0.00202251
0.00306091
0.00221337
0.00232134
0.000885494
0.000411168
0.000115748
0.00187623
0.00161787
0.00135866
0.00121492
0.000328711
0.000275837
0.000123399
1.00552e-05
0.00165673
0.00148246
0.0015186
0.00243001
0.00158041
0.00163544
0.000421848
0.000113386
0.00181153
0.00156267
0.00129531
0.00103903
0.000861645
0.000186341
0.000125345
9.38962e-06
0.00141875
0.0013288
0.00113611
0.0010976
0.0018103
0.00101885
0.000946085
0.000126497
0.00191329
0.00186856
0.00150147
0.00125166
0.000984489
0.000736123
0.000533218
7.71256e-05
1.25974e-05
0.00139201
0.0011582
0.00105007
0.000841223
0.000746873
0.00123764
0.0005582
0.000236993
0.00137002
0.00179336
0.00159702
0.00119072
0.000951587
0.000692447
0.000457081
0.000249945
1.39653e-05
0.00161556
0.00115775
0.000937484
0.000820539
0.000598885
0.000437665
0.000659572
0.000213933
0.000565715
0.00120787
0.00119359
0.00165773
0.00131047
0.000896203
0.000669362
0.000426046
0.000213234
4.94533e-05
0.00140794
0.000942351
0.0007366
0.000616253
0.000407392
0.000219545
0.000143671
0.000408097
0.000501381
0.00116315
0.00101654
0.000985545
0.00150878
0.00100967
0.000624278
0.000411444
0.00019641
3.72676e-05
0.000630445
0.000940815
0.00116919
0.000736958
0.00054602
0.000424919
0.000248707
8.27642e-05
0.000279898
0.000399578
0.000994825
0.000819458
0.000762995
0.00134487
0.000710761
0.000380245
0.000188119
3.21259e-05
0.000523466
0.000815846
0.000914574
0.000536582
0.000361799
0.000235162
8.95089e-05
0.000183369
0.000308768
0.000814238
0.000623512
0.000537591
0.00116068
0.000430456
0.000171683
2.93629e-05
0.000419004
0.00067728
0.000659853
0.000343238
0.000183985
6.41754e-05
0.00010972
0.000231062
0.000627634
0.000434803
0.000321846
0.000953829
0.00018985
2.53497e-05
0.000317759
0.000528759
0.000413389
0.000163433
3.58541e-05
5.94095e-05
0.000163907
0.000441729
0.000258553
0.000132436
3.08819e-05
0.000220574
0.00037641
0.000190173
2.46942e-05
3.2233e-05
0.000101573
0.000263613
0.000103706
1.30161e-05
0.000130304
0.000226754
2.7357e-05
4.18986e-05
0.000105304
7.69261e-06
4.96145e-05
9.05149e-05
1.35899e-06
7.52852e-06
1.96849e-06
5.8568e-06
0.00073959
0.000739076
0.000740652
0.000740894
0.000741761
0.000740938
0.000741172
0.000742209
0.000740033
0.000738884
0.000740174
0.000740614
0.000741478
0.000741382
0.000742103
0.000744858
0.000758735
0.000763857
0.000768516
0.000778115
0.000782196
0.000744006
0.000747462
0.000741893
0.000743738
0.000742491
0.000740682
0.000742165
0.000743592
0.000741024
0.000794472
0.000798666
0.000740012
0.000740074
0.000740965
0.000741167
0.000742292
0.000742077
0.000745557
0.000748094
0.000751266
0.000753307
0.000756768
0.000764462
0.000771312
0.000776408
0.00078922
0.000794207
0.000819092
0.000820931
0.000750109
0.000753167
0.000755789
0.000759547
0.000764063
0.000771467
0.000780794
0.000743745
0.000747903
0.00074168
0.000742633
0.000742626
0.000740874
0.000743438
0.000744629
0.000742381
0.000778169
0.000786115
0.000840135
0.000849129
0.000808702
0.000808761
0.000833286
0.000739877
0.000740619
0.00074124
0.000742454
0.000743895
0.000745484
0.000749489
0.000751033
0.000757991
0.000759955
0.000764742
0.000771114
0.000784755
0.000791874
0.000805446
0.00081387
0.000830822
0.000834783
0.000859816
0.000869163
0.000905665
0.00089925
0.000922056
0.000747039
0.000751967
0.000753488
0.000758214
0.000763797
0.000743759
0.000746852
0.000741631
0.000741951
0.00074358
0.000741547
0.000744497
0.000744467
0.000744746
0.000763727
0.00077996
0.000780885
0.000803395
0.000811454
0.000905537
0.000853343
0.000892143
0.000835691
0.000850523
0.000742846
0.000743119
0.000745363
0.000746146
0.000750092
0.000750642
0.000757461
0.000756009
0.000766148
0.000762322
0.000776133
0.00077931
0.000816425
0.00081102
0.00082682
0.000846874
0.000854227
0.000865638
0.000885668
0.000897014
0.000950551
0.000951694
0.000999221
0.00101824
0.000981841
0.00102469
0.00103105
0.00122699
0.000746523
0.000751761
0.00075308
0.000756985
0.00074594
0.000745378
0.000743833
0.000746526
0.000742155
0.00074197
0.000744434
0.000743745
0.000742001
0.000746275
0.000745149
0.000760923
0.000772137
0.000780778
0.00152321
0.00134634
0.0014964
0.000800696
0.000803219
0.000830948
0.00084477
0.000906636
0.000918838
0.00106772
0.000972074
0.000861636
0.000910041
0.000750702
0.000748252
0.000754569
0.000750914
0.00075966
0.000754555
0.000764716
0.000760404
0.000764971
0.000770599
0.000781872
0.000783069
0.000794208
0.000819077
0.000848952
0.000824098
0.000851492
0.000971813
0.000969657
0.00096363
0.00102996
0.00202906
0.00209535
0.00175437
0.0011792
0.0011797
0.0012982
0.00124834
0.0012509
0.00137756
0.0013886
0.00186927
0.00156548
0.00355236
0.00332345
0.00339992
0.00210694
0.00299678
0.00280608
0.00246348
0.00212374
0.000746578
0.000750826
0.000750462
0.000755442
0.000744147
0.000743569
0.000743949
0.000745655
0.000742595
0.000742564
0.000742171
0.000746426
0.00074544
0.000744281
0.000743668
0.000760302
0.000774182
0.000803282
0.000781956
0.000798392
0.00366331
0.00367491
0.00284285
0.00272377
0.00214446
0.00111881
0.00136831
0.00156097
0.00192287
0.000837587
0.000839198
0.000847895
0.000847789
0.000891696
0.000904217
0.000987646
0.000978449
0.0010599
0.00363325
0.00342534
0.00126162
0.00328272
0.00288507
0.00263676
0.00148424
0.0017908
0.00189236
0.00263118
0.000779906
0.000766958
0.000783197
0.000769523
0.000785955
0.000774931
0.000789988
0.000790244
0.000798818
0.000796235
0.000811131
0.000811473
0.000851605
0.000875826
0.000930175
0.000902763
0.00112318
0.0013347
0.00110313
0.00173956
0.00142802
0.00132886
0.00163062
0.00146263
0.00143896
0.00252801
0.00305333
0.00350332
0.00304516
0.00267776
0.00227899
0.00180853
0.00167426
0.0018428
0.00201134
0.00259768
0.00190364
0.00203957
0.00348461
0.00355018
0.00361266
0.00369949
0.00357002
0.00340348
0.00329265
0.00330271
0.00138588
0.00136689
0.00284769
0.00297172
0.00153386
0.00160468
0.00191217
0.0025465
0.00207328
0.00240982
0.000746574
0.000749738
0.000749108
0.000758481
0.000743209
0.000742992
0.000742975
0.000743889
0.000745188
0.000746442
0.000745198
0.000744522
0.000743516
0.000743389
0.000743106
0.00075855
0.000774483
0.000775763
0.000795194
0.000799205
0.000825983
0.000794045
0.00349714
0.00374807
0.00338336
0.00371059
0.00365114
0.00274259
0.00332351
0.002626
0.00214888
0.000838068
0.00191941
0.00117853
0.00174245
0.00137067
0.000885213
0.000877669
0.000898606
0.000888785
0.000922963
0.000910167
0.00103602
0.00101966
0.0011762
0.00369741
0.00339354
0.00375767
0.00113374
0.00120565
0.000952379
0.0032391
0.00280132
0.00265943
0.0018022
0.00114213
0.00157863
0.000621442
0.000829322
0.00386262
0.00129152
0.000686249
0.000845366
0.000778922
0.000878337
0.000864339
0.000903736
0.000940773
0.000879768
0.000870958
0.000944754
0.000951118
0.00115108
0.00122249
0.00165789
0.00132519
0.00174583
0.00135853
0.00132087
0.00176816
0.00148416
0.0016083
0.00186881
0.00223654
0.00184439
0.00156219
0.0020308
0.00181018
0.00215263
0.00203283
0.00274141
0.00314758
0.00354038
0.00335264
0.00294875
0.00246909
0.00247809
0.00227097
0.00280516
0.00231836
0.00251911
0.00360699
0.00349845
0.00368496
0.00355566
0.00362697
0.00333164
0.00339058
0.00287825
0.00312558
0.00303491
0.00146093
0.00162582
0.00247868
0.00263934
0.00227157
0.00215562
0.00196174
0.000757566
0.000746429
0.000748847
0.000748621
0.000743112
0.000743739
0.000744833
0.000759365
0.000745965
0.000744883
0.000744501
0.000743737
0.000743855
0.000743355
0.000743828
0.00074391
0.000746843
0.000745109
0.000744489
0.000748486
0.000748046
0.000750369
0.000772603
0.000773828
0.000776636
0.000785707
0.000843064
0.000814369
0.000816207
0.000796365
0.00381292
0.00380599
0.00353958
0.00244472
0.00335126
0.00284306
0.000873876
0.000905489
0.000923179
0.00241385
0.00142132
0.00226781
0.00154783
0.000945676
0.000926452
0.00100669
0.000989183
0.00115934
0.00117424
0.00134275
0.00376714
0.00378175
0.00357374
0.00387838
0.00392583
0.00339523
0.000839961
0.000904506
0.000674463
0.00293974
0.00271259
0.00207881
0.0015088
0.000864524
0.00908759
0.00821591
0.00217131
0.000903867
0.00742684
0.00528192
0.00139162
0.000908652
0.00114811
0.000911764
0.0010762
0.000993713
0.0011278
0.00126882
0.00124448
0.0017679
0.00180455
0.00150638
0.00223732
0.00173153
0.0019497
0.00250697
0.00247194
0.00270168
0.00222141
0.002392
0.00258325
0.00287054
0.00222845
0.00242715
0.00264719
0.00234667
0.00273303
0.00243557
0.0034875
0.00319285
0.00339238
0.00330559
0.00307373
0.00305347
0.00318681
0.00305953
0.00297692
0.00365247
0.00349402
0.00341744
0.00352623
0.00349059
0.00302798
0.00328105
0.00257293
0.00277318
0.0021536
0.0022874
0.000756058
0.000753081
0.000749739
0.00075693
0.000744113
0.000746012
0.00074756
0.000755101
0.000761087
0.000745236
0.000744221
0.000744298
0.000743616
0.000743999
0.00074363
0.000744639
0.000744799
0.000748054
0.000742031
0.000747125
0.00074847
0.000751021
0.00075257
0.000770533
0.00077476
0.000786051
0.000795293
0.000865403
0.000841972
0.000840741
0.00081152
0.00317632
0.00330764
0.00384334
0.000924213
0.000946723
0.000938403
0.0010476
0.000984118
0.00233378
0.00297714
0.00164914
0.00209585
0.0013817
0.00128776
0.00170704
0.00167654
0.00149895
0.00370216
0.00391665
0.00394104
0.00374244
0.00374659
0.00351682
0.00303003
0.00276382
0.000615994
0.000704395
0.00239335
0.00188318
0.0014591
0.000787931
0.00915348
0.0103063
0.00382906
0.00830501
0.010175
0.00984349
0.00550973
0.00340428
0.00942715
0.00895595
0.00456703
0.002527
0.00352382
0.00204351
0.00293875
0.00185588
0.00251738
0.00252348
0.00203741
0.00300054
0.00263558
0.00261672
0.00252018
0.00265087
0.00315489
0.00306925
0.00311565
0.00334494
0.00306536
0.00279484
0.0032399
0.00342005
0.00288876
0.00317146
0.00338463
0.00308261
0.00338509
0.00361042
0.00345791
0.00359874
0.00346792
0.00357022
0.00344417
0.00345035
0.00347534
0.00355053
0.00354188
0.00315443
0.00337494
0.00269564
0.00284746
0.00216573
0.00232806
0.000759238
0.00075684
0.000756165
0.000753957
0.000749329
0.000750119
0.000753865
0.000759965
0.000764781
0.000746979
0.000741819
0.000746829
0.000742308
0.000748229
0.000744793
0.000750463
0.000746286
0.000747634
0.000749189
0.000750656
0.000752758
0.000754043
0.000775738
0.000777405
0.000786696
0.000817026
0.000802833
0.000780912
0.000912042
0.000872506
0.000876157
0.000845825
0.000952071
0.00382946
0.00337782
0.000976763
0.000937228
0.00119357
0.00115924
0.00177418
0.00218002
0.00223566
0.00211176
0.00305077
0.00257617
0.00227279
0.00251336
0.00235022
0.00394785
0.00414225
0.00377649
0.00396554
0.00323675
0.00293325
0.0023742
0.00219108
0.00188979
0.00179599
0.000608946
0.0013504
0.00767571
0.00987872
0.0022981
0.00576109
0.00967012
0.0106805
0.00857523
0.00738781
0.0107101
0.0102592
0.00694944
0.00582199
0.00571905
0.00380058
0.00439547
0.00351518
0.00316395
0.00331394
0.00416057
0.00345034
0.00393262
0.00334471
0.00360698
0.00363589
0.00388124
0.00378621
0.00375753
0.00362542
0.00356739
0.00335285
0.00366503
0.00381417
0.00345257
0.00361681
0.00372639
0.00359407
0.00370635
0.00358706
0.00354842
0.00355148
0.00364193
0.00363165
0.00361894
0.00326297
0.0034226
0.00276585
0.00293825
0.00222347
0.00239957
0.000787735
0.000664946
0.000759282
0.000760242
0.000759202
0.00075762
0.000756804
0.000754807
0.00075598
0.000758382
0.000763647
0.000763895
0.000780502
0.000747284
0.00074668
0.000748046
0.000748552
0.00075114
0.000749146
0.000750007
0.00075179
0.000753115
0.000754002
0.000755743
0.000775825
0.00079963
0.000802712
0.000848849
0.000793128
0.000799754
0.0009493
0.000896695
0.000904842
0.000852187
0.00101109
0.00115526
0.000901439
0.00389719
0.003738
0.00191796
0.00161074
0.00242891
0.0031917
0.00318592
0.00282763
0.00299542
0.00342669
0.00363522
0.00305396
0.00384544
0.00446726
0.00305103
0.00354305
0.00254849
0.0022497
0.00181578
0.00166874
0.000596978
0.000908852
0.00597553
0.00920846
0.00156462