/*--------------------------------*- C++ -*----------------------------------*\
  =========                 |
  \\      /  F ield         | OpenFOAM: The Open Source CFD Toolbox
   \\    /   O peration     | Website:  https://openfoam.org
    \\  /    A nd           | Version:  8
     \\/     M anipulation  |
\*---------------------------------------------------------------------------*/
FoamFile
{
    version     2.0;
    format      ascii;
    class       volScalarField;
    location    "0.061";
    object      p;
}
// * * * * * * * * * * * * * * * * * * * * * * * * * * * * * * * * * * * * * //

dimensions      [0 2 -2 0 0 0 0];

internalField   nonuniform List<scalar> 
656
(
3.92497e-07
-0.235415
1.72859
-0.7867
0.189109
1.73123
-1.15106
-1.55284
2.05498
1.70641
1.76606
-0.438537
0.38613
1.74771
2.03449
2.25917
1.63659
1.58731
2.26845
2.39137
1.80211
1.82118
1.78641
1.81791
-0.067828
0.616181
1.77438
2.01724
2.25042
1.84382
1.86663
2.55671
2.39634
2.38635
2.55443
2.69002
2.15655
2.17265
2.13724
1.78224
1.85334
0.28047
0.818513
1.80944
2.0069
2.24335
2.18688
2.19944
2.86036
2.69084
2.55897
2.38209
2.55203
2.68876
2.86085
3.02755
2.16149
2.17587
2.18742
2.1204
2.14582
1.82907
2.00075
2.23602
2.1977
2.20652
3.02637
2.85844
2.69132
3.34498
2.37749
2.54909
2.68638
2.85974
3.02741
2.18274
2.19281
2.19463
2.19414
1.98958
2.22565
2.19343
2.19289
3.61247
3.34068
3.02258
2.85607
3.34551
3.56249
4.81663
2.36919
2.54658
2.68239
2.85999
3.02876
2.09327
2.08874
2.09007
2.09224
2.09412
2.09548
5.39496
5.07758
3.65362
3.32847
3.01723
3.35165
3.52786
4.5859
5.00427
2.1181
2.10185
2.09353
2.0872
2.08107
2.07564
3.46393
5.83362
5.30382
3.68496
3.3118
3.39808
2.1384
2.12605
2.1149
2.10563
2.09745
2.09026
3.53791
3.54919
6.25265
5.51768
3.70236
3.53239
2.22639
2.21174
2.19917
2.18882
2.17973
2.17182
3.18937
3.54077
3.65145
6.69744
5.77321
3.19319
2.32631
2.31378
2.30172
2.29142
2.28254
2.27505
3.12265
3.18755
3.53832
3.76315
7.19327
3.13346
3.07486
2.40779
2.40842
2.4022
2.3909
2.37932
2.36956
3.06626
3.11263
3.18555
3.52847
3.85137
3.07012
2.47143
2.50111
2.49445
2.47757
3.06516
3.05746
3.10335
3.18141
3.51422
3.07079
3.18815
2.31781
2.30574
3.08444
3.06815
3.05921
3.05001
3.09343
3.17534
3.15783
3.19261
3.21522
3.0929
3.08364
3.06484
3.05432
3.04299
3.08392
3.13684
3.15948
3.19716
3.21643
3.3397
3.09802
3.09264
3.08252
3.06247
3.05001
3.03665
3.12368
3.13685
3.16012
3.20027
3.22866
3.38675
3.10055
3.09838
3.09282
3.08204
3.06059
3.04626
3.11587
3.12319
3.13644
3.15997
3.20213
3.23952
3.09867
3.1008
3.09879
3.0931
3.08183
3.05901
3.1115
3.11512
3.12245
3.13571
3.15956
3.20301
3.101
3.09838
3.10097
3.09924
3.09351
3.08169
3.11421
3.11112
3.11436
3.12167
3.13489
3.15917
3.10348
3.10072
3.09828
3.10107
3.09968
3.09388
3.10747
3.11037
3.11452
3.11082
3.11368
3.12091
3.13424
3.10333
3.10043
3.09824
3.10114
3.1001
3.10756
3.11074
3.11465
3.11067
3.11307
3.12029
3.10319
3.10017
3.09823
3.1012
3.10764
3.11108
3.11471
3.11057
3.11251
3.10306
3.09993
3.09822
3.10772
3.11138
3.11474
3.11048
3.10294
3.09972
3.10779
3.11166
3.11477
3.10283
3.10784
3.11192
0.611872
0.921022
2.12092
2.05033
1.83003
1.80103
1.83258
1.36904
1.47457
1.26355
1.80881
1.85003
2.14481
2.14371
2.16544
2.16159
2.10575
2.08038
2.01319
1.95878
1.7448
1.56626
1.91247
1.84331
1.99337
1.9909
1.88166
2.10615
2.10794
2.14102
2.15627
2.16327
2.12637
2.08123
2.09204
2.00125
1.94344
2.13242
2.22597
2.1144
2.36212
2.27294
2.1365
2.07569
4.46958
4.70425
3.32636
2.5499
2.45664
3.17354
3.02232
2.68283
2.64618
2.96518
2.86554
2.80928
2.14187
2.11391
2.12919
2.17204
2.2254
2.21789
2.20874
2.2097
2.26272
2.16366
2.45113
2.39418
2.28202
2.29791
3.96843
3.53521
3.45029
3.98475
3.79617
3.42528
3.28032
3.31001
3.16909
2.62054
2.52747
3.08317
2.97612
2.88839
2.8152
2.74299
2.14567
2.16424
2.19149
2.24991
2.27621
2.34404
2.36884
2.56629
2.41775
2.36464
2.6533
2.48413
2.423
3.66961
3.53955
3.48915
3.52738
3.44774
3.36966
3.22764
3.17438
3.05141
2.96047
2.8788
2.73933
2.70058
2.23584
2.25175
2.27595
2.36663
2.3853
2.43638
2.47439
2.5877
2.53962
2.8086
2.73295
2.59628
2.54061
3.18403
3.31864
3.32913
3.35973
3.27921
3.20679
3.11486
3.0314
2.89172
2.9776
2.91231
2.33693
2.55182
2.37812
2.39073
2.43929
2.45241
2.51743
2.85225
2.69178
2.73486
2.88259
2.59705
2.70581
2.67991
2.88289
3.12803
3.15299
3.00083
2.96644
3.08544
3.03094
3.19325
3.24014
3.2177
3.00976
2.98404
3.17394
3.0278
3.04246
2.42686
2.61968
2.53571
2.5944
2.47592
2.47901
2.51124
2.74687
2.81502
2.8686
2.92059
2.67828
2.7534
2.70908
2.91803
2.97931
3.03649
3.03241
3.09731
3.14428
3.12452
3.06822
3.0656
3.07231
3.05998
3.08178
3.12737
3.05152
3.07589
3.03791
3.07596
3.0769
3.091
3.0734
3.06654
3.07116
2.56002
2.45333
2.52487
2.63822
2.65756
2.53162
2.54428
2.63094
2.94429
2.79787
2.83862
2.6772
2.79821
2.98255
2.96402
3.04146
3.07028
3.09718
3.14032
3.14488
3.20277
3.22694
3.22737
3.19767
3.16934
3.18959
3.14309
3.20312
3.18226
3.18547
3.1443
3.11844
3.10756
3.05703
3.09835
3.10037
3.12572
3.09693
3.07063
3.06113
3.06648
3.06336
3.06716
3.09312
3.23868
2.44977
2.33477
2.41689
2.564
2.59307
2.67025
2.84045
2.8292
2.86795
3.11048
3.00033
3.00882
3.27067
3.16368
3.14115
3.30509
3.27923
3.36797
3.16549
3.13414
3.16555
3.15384
3.15729
3.08085
3.08245
3.13231
3.10814
3.11375
3.08884
3.06202
3.09258
3.09857
3.08729
3.09073
3.10222
3.37926
3.18469
3.06705
3.02381
3.02726
2.98073
2.77751
3.02491
3.32113
3.09143
3.09108
3.14626
3.13231
3.13891
3.12838
3.13773
3.09342
3.09131
3.12689
3.11501
3.10225
3.09167
3.10295
3.08921
3.54219
3.0977
3.09762
3.09741
3.09846
3.09949
3.10036
3.12712
3.11433
3.12564
3.12347
3.12474
3.09821
3.10537
3.10042
3.11332
3.11552
3.09935
3.10181
3.1002
3.10047
3.09942
3.10024
3.11772
3.11474
3.11616
3.11658
3.11618
3.10233
3.10474
3.10812
3.10969
3.11282
3.11171
3.10184
3.103
3.10117
3.10176
3.11235
3.11223
3.11037
3.10531
3.10963
3.10716
3.1134
3.11207
3.10363
3.10513
3.10732
3.10989
3.10952
)
;

boundaryField
{
    movingWall
    {
        type            zeroGradient;
    }
    fixedWalls
    {
        type            zeroGradient;
    }
    frontAndBack
    {
        type            empty;
    }
    defaultFaces
    {
        type            empty;
    }
}


// ************************************************************************* //
