/*--------------------------------*- C++ -*----------------------------------*\
  =========                 |
  \\      /  F ield         | OpenFOAM: The Open Source CFD Toolbox
   \\    /   O peration     | Website:  https://openfoam.org
    \\  /    A nd           | Version:  8
     \\/     M anipulation  |
\*---------------------------------------------------------------------------*/
FoamFile
{
    version     2.0;
    format      ascii;
    class       surfaceScalarField;
    location    "0.061";
    object      phi;
}
// * * * * * * * * * * * * * * * * * * * * * * * * * * * * * * * * * * * * * //

dimensions      [0 3 -1 0 0 0 0];

internalField   nonuniform List<scalar> 
1107
(
0.000315988
-0.000643388
0.000633495
-0.000306094
0.000616968
-0.00030098
-2.96871e-05
0.000646655
0.000304962
0.000538556
-0.000106654
-0.000736864
-0.000968718
0.000630292
-9.76563e-05
0.000701464
0.000286064
-5.3602e-05
-1.49162e-05
-3.7272e-05
0.000683927
-3.30508e-05
1.43466e-05
-8.79502e-05
0.000180752
-0.000148834
-6.4969e-05
0.000300272
-0.000856384
-0.00126768
0.000599239
-0.000207465
0.0007401
0.000760966
-9.67741e-05
4.17068e-05
0.000814908
-9.56486e-05
3.58077e-06
-4.28362e-05
-1.13354e-05
0.000725634
0.000853061
2.99205e-05
-6.80739e-05
6.4473e-05
-0.000126751
-8.65565e-05
2.51488e-05
-4.8626e-05
0.000227396
-0.00014076
-0.000213387
0.000277848
-0.000115421
0.000296553
-0.000875089
-0.00151061
0.000539474
-0.000366495
0.000758269
0.000828763
-0.000185437
0.000899221
-0.000166107
5.21558e-06
-2.29029e-05
-6.11984e-06
-2.22888e-05
0.000865039
1.03108e-05
0.000755555
0.000946158
-0.000115011
0.000963453
-3.95839e-05
0.000951835
-2.38991e-05
3.55177e-05
3.54041e-05
-7.27547e-05
-4.92059e-05
1.3622e-05
-2.68438e-05
-8.24013e-05
-0.000131113
0.000322168
-0.000215175
-0.00032038
0.000397172
-0.000190426
0.000306687
-0.000784604
0.000459871
-0.00166379
-0.000570349
0.000743329
0.000880859
-0.000308027
0.000968428
-0.000253676
2.99796e-06
-1.22789e-05
-3.12188e-06
8.81563e-05
0.000916879
-5.32009e-05
0.00085346
-1.23196e-05
0.000765865
0.00102608
-0.000172667
0.00105044
-6.39414e-05
0.0010396
4.63567e-05
0.000999394
0.000128365
-0.000118498
0.000932797
0.000185096
5.74531e-05
-0.000104206
-3.56485e-05
2.7605e-05
-1.93577e-05
1.04142e-05
-9.65302e-06
-0.000129772
-0.000216516
-6.19184e-05
-0.000172059
0.000691195
-0.000801673
0.000902294
-0.000466993
0.00101088
-0.000362258
2.20822e-06
-4.07296e-06
-9.13663e-07
0.000865636
-6.72556e-05
0.000823929
-2.36705e-05
0.000753546
0.000822838
-0.00014739
0.000257349
0.00107954
-0.000241334
0.00111063
-9.50264e-05
0.00110231
5.46752e-05
0.00105821
0.000172462
0.000974455
0.000268853
4.56521e-05
-3.06075e-05
-7.6963e-05
2.44418e-05
-1.44382e-05
1.14683e-05
-6.38419e-06
4.27948e-06
-2.46421e-06
0.000877218
-0.000653015
0.00100522
-0.000490264
8.82597e-07
-6.76077e-07
-3.10654e-08
0.000334123
0.000670006
-0.000181291
0.000790598
-7.23524e-05
0.000785608
-2.89343e-05
0.000729875
0.000827204
0.0004046
0.00062266
0.000538667
0.000388288
-0.00129505
0.00152942
0.0010844
-0.000320505
0.00112424
-0.000134871
0.00112304
5.58705e-05
0.00107765
0.000217858
0.000975137
0.000371364
-3.5872e-05
-5.57983e-05
6.10628e-05
-1.92685e-05
-3.10417e-05
-9.09258e-06
-1.65602e-05
-3.38001e-06
-8.17677e-06
-6.70624e-07
-3.38547e-06
-7.01689e-07
0.000988024
0.000345388
-0.000945125
0.000371506
-0.000996553
0.000688045
-7.87369e-05
0.000739097
-2.58416e-05
0.000700941
0.00079342
0.000586317
0.000547528
0.000784559
0.000411874
0.00166508
0.000483325
0.000916574
-5.78804e-05
-9.54238e-05
9.75059e-05
-3.13302e-05
-5.75919e-05
-1.47861e-05
-3.31043e-05
-5.47324e-06
-1.74896e-05
-1.09568e-06
-7.76302e-06
-1.79737e-06
0.000101487
0.000300626
-5.67242e-05
0.000227755
-0.000801373
0.000357807
-0.000666315
0.000680876
-2.05156e-05
0.000675099
0.000415842
0.000168969
-4.46166e-05
-0.000125332
7.45254e-05
-2.45232e-05
-7.76854e-05
-1.17993e-05
-4.58281e-05
-4.48849e-06
-2.48004e-05
-9.73056e-07
-1.12785e-05
-2.77043e-06
0.000246504
0.000202919
-0.000148798
0.000201312
-3.02809e-05
0.000136226
-0.000579793
0.000342994
-0.000328433
0.000654584
0.000297654
0.000364692
-1.47498e-05
-0.000134199
2.36167e-05
-8.35873e-06
-8.40765e-05
-4.13676e-06
-5.00501e-05
-1.65944e-06
-2.72778e-05
-4.04912e-07
-1.2533e-05
-3.17535e-06
0.000150025
0.000136445
-8.35503e-05
0.000129067
-7.65534e-05
0.000120977
-1.50323e-05
7.00053e-05
-0.000306804
0.000326151
0.000201851
0.000245828
1.4002e-05
-0.000122541
-2.56604e-05
7.11542e-06
-7.71899e-05
3.17075e-06
-4.61055e-05
1.1187e-06
-2.52257e-05
1.79762e-07
-1.1594e-05
-2.99558e-06
0.000129913
7.8878e-05
-7.2346e-05
8.5962e-05
-4.04454e-05
7.41815e-05
-2.97578e-05
5.93448e-05
-4.37188e-06
1.93468e-05
0.000119938
0.000211827
-8.92511e-05
5.99656e-05
0.000149223
1.62251e-05
-3.57669e-05
-0.000102999
7.57989e-06
-6.85447e-05
3.24032e-06
-4.17659e-05
1.16926e-06
-2.31547e-05
2.2513e-07
-1.06499e-05
-2.77045e-06
3.84865e-05
-4.88596e-05
4.86134e-05
-3.49974e-05
4.90435e-05
-1.53073e-05
3.54216e-05
-5.83457e-06
1.49749e-05
-5.22733e-05
2.39958e-05
8.82431e-05
-3.18763e-05
5.76895e-05
-6.75791e-05
-1.25548e-05
-4.24762e-05
-2.81456e-06
-2.03902e-05
-5.58501e-06
1.45134e-05
-2.83002e-05
2.31212e-05
-2.33675e-05
2.72357e-05
-1.31896e-05
2.31957e-05
-3.08134e-06
9.14036e-06
4.93642e-06
-2.58203e-05
4.48797e-05
-2.07332e-06
7.06389e-06
7.2481e-06
-1.22387e-05
-1.29749e-05
5.60194e-05
-6.34346e-05
-1.85599e-05
-1.92234e-06
-8.22322e-06
1.5082e-05
2.33539e-06
-1.36424e-05
8.21539e-06
-1.33944e-05
1.26488e-05
-8.78058e-06
1.27216e-05
-2.7155e-06
6.05902e-06
1.56306e-06
4.37594e-06
-8.01232e-06
-4.97805e-07
3.46617e-06
4.09553e-06
-1.88708e-06
8.47308e-06
-1.68469e-05
1.02609e-05
-3.09544e-06
-3.37062e-07
1.51016e-06
-1.78782e-06
-4.10001e-06
8.99765e-07
-6.32677e-06
4.24343e-06
-4.98906e-06
5.79124e-06
-1.85024e-06
3.34352e-06
3.50314e-06
1.70276e-06
-3.64283e-06
1.67493e-06
2.20322e-06
1.17984e-07
1.46111e-06
-7.5238e-07
3.04581e-06
6.17968e-06
-2.68132e-06
4.81111e-06
-2.38769e-05
2.17471e-05
-2.1698e-06
2.1667e-06
-3.09235e-06
-2.23297e-06
1.0808e-07
-1.41345e-06
-1.7868e-06
2.38046e-07
-2.32138e-06
1.84431e-06
-1.04212e-06
1.49328e-06
3.84009e-06
-3.39594e-07
2.64559e-09
2.65845e-06
7.19247e-07
1.33708e-06
9.84127e-07
2.42244e-07
4.66483e-07
-2.00567e-07
5.65057e-07
-5.82613e-07
5.39372e-06
-1.21168e-06
1.73752e-06
-2.69563e-06
-1.40235e-06
1.33608e-06
-1.47788e-06
1.72511e-07
-9.37885e-07
-6.10874e-07
4.53515e-09
-4.81609e-07
4.5115e-07
2.70181e-06
-2.27301e-06
3.41128e-06
2.65244e-06
-3.33587e-07
1.79789e-06
2.58436e-07
8.82291e-07
3.4408e-07
1.82672e-07
8.32428e-08
-1.75553e-08
-1.68321e-06
-9.49469e-07
1.42099e-06
-6.59651e-07
9.94822e-07
-8.40126e-07
6.98326e-07
-8.71428e-07
1.06053e-07
-4.95382e-07
-1.10957e-07
-3.0459e-08
1.50005e-06
-2.03121e-06
3.23297e-06
1.72302e-06
-1.34358e-06
1.68117e-06
-2.16866e-07
1.07362e-06
6.71031e-08
4.61812e-07
6.49395e-08
6.56874e-08
-2.46446e-06
-1.39265e-06
2.17391e-06
-1.044e-06
-5.65116e-07
-3.36233e-07
4.90928e-07
-4.54109e-07
2.81007e-07
-4.22397e-07
3.30688e-08
-1.41416e-07
2.15109e-06
1.27417e-06
-1.92521e-06
8.34297e-07
-1.14248e-06
1.01541e-06
-6.77833e-07
9.57037e-07
-1.00281e-07
5.23362e-07
5.55199e-09
1.30627e-07
-2.92796e-06
-7.51279e-07
1.21477e-06
-1.62961e-06
-8.07049e-07
-6.08758e-07
-2.92591e-07
-1.52326e-07
1.89145e-07
-2.03511e-07
6.21209e-08
-1.08347e-07
-2.82746e-06
1.90137e-07
-2.90634e-07
1.29221e-06
-1.96859e-06
1.34889e-06
7.59577e-07
4.31164e-07
-5.58232e-07
5.43116e-07
-2.63913e-07
4.49484e-07
-2.64031e-08
1.36178e-07
-1.95439e-06
-4.26498e-07
-1.01105e-06
-4.04753e-07
-3.24785e-07
-1.20131e-07
-5.34612e-08
3.90952e-08
-4.62264e-08
-1.87933e-06
1.15073e-07
7.61775e-07
7.96973e-07
3.93767e-07
1.98699e-07
-2.13815e-07
2.41545e-07
-5.59745e-08
1.09775e-07
-1.22551e-06
-2.12042e-07
-5.7028e-07
-1.59259e-07
-1.45785e-07
-2.78072e-08
-7.13135e-09
-1.17137e-06
6.09278e-08
3.87383e-07
4.3078e-07
1.61685e-07
7.14746e-08
-4.3745e-08
5.38005e-08
-6.98104e-07
-8.42178e-08
-2.69334e-07
-3.57104e-08
-3.49385e-08
-6.63597e-07
2.64201e-08
1.54566e-07
1.95601e-07
3.75578e-08
1.00554e-08
-3.33846e-07
-1.97058e-08
-7.0649e-08
-3.14727e-07
7.30087e-09
3.5441e-08
4.76131e-08
-9.03549e-08
-8.30541e-08
0.000597179
-0.00138178
-0.00106661
0.000323402
-0.000539918
0.000860691
-0.00053729
0.000540311
0.00130424
-0.000763926
0.00111381
-0.000267971
0.00157006
-0.00183803
0.000503453
-0.000298221
-0.00139489
0.000630967
0.000139436
-0.000311495
-0.000400482
4.44284e-05
-0.000121391
-0.000267067
0.00033184
-0.000732322
0.00117714
-0.000845305
0.000639855
-0.000755038
0.00207402
-0.00144305
0.000235985
0.00130964
-0.00107366
0.00101142
0.000358405
0.00101921
-0.00177425
-0.000423842
-6.03286e-05
0.000230335
-0.000290664
-3.67315e-05
-0.000769053
-6.7397e-05
-0.000701656
0.00137386
-0.00144126
0.000528559
-0.00124569
0.00142804
-0.00185188
0.000354379
0.000886964
-0.000532585
-0.00124537
0.000755105
-0.00137903
0.00105852
-0.000623924
0.000989894
-0.00223558
-0.000861984
0.000861388
0.00080369
0.00177796
-0.000412855
0.000999172
-0.00149383
0.00135896
-0.000435306
-0.00116213
0.00074928
-0.000790771
-0.00132499
0.00138086
3.39737e-05
-0.0012933
0.00050253
-0.00107544
0.000305413
-0.000193158
0.000132825
-0.000325983
-0.000568831
0.000281188
-0.000850019
-0.00116007
0.000202529
-0.0013626
-0.00203305
0.00114333
-0.00200531
-0.000610745
-1.31787e-05
-0.00066693
0.000231624
-0.000680109
-2.48336e-05
-0.00200822
-0.00203015
-0.000901524
0.00170521
-0.000116965
0.000882207
0.000282019
0.00149594
0.00198723
0.00166491
-2.64329e-05
0.00090864
-0.00101647
0.000990036
-0.000267189
-0.000586446
0.000620419
-0.000354822
-0.000970937
0.000703748
-0.000468407
-0.000797524
0.000329116
-0.00049211
0.000128309
-0.000251457
8.11832e-05
-0.000332641
-0.000768836
3.48998e-05
-0.000803736
-0.0013277
-0.000351023
-0.000976679
-0.00235924
0.000885093
-0.00123991
0.000204984
-0.00182516
-0.00142628
0.000186364
0.000920465
-0.00274563
-0.00143878
0.000539065
0.00144817
0.00144771
-0.00100892
0.00137362
0.000655988
0.00210416
9.92612e-05
0.00134844
0.0010893
4.45944e-05
0.0010447
0.000748343
0.000218585
0.000529757
0.000547702
0.000676011
-0.000750268
-0.000309024
1.00118e-05
-0.000319036
-0.000793724
-0.00034946
-0.000444264
-0.00132614
-0.000424864
-0.000901274
-0.00186364
0.00201413
-0.00182777
-0.000731495
0.00173292
-0.00248318
-9.48539e-05
0.00128851
-0.00202001
-0.000575128
-0.000616904
0.000862731
0.000756714
-0.00121256
0.00196928
0.000891593
0.00224004
0.00140669
0.000833348
0.00245139
0.00298115
-0.000632678
0.00205894
-0.00142626
0.00311586
-0.000134711
-0.000344696
0.000564982
-0.00114011
-9.40397e-05
-0.000250656
-0.000538304
-0.000119172
-0.000419133
-0.00102045
-0.000455463
0.0018239
0.000235039
-0.00172904
-0.000290965
-0.000732974
0.000968013
-0.000977038
-0.000163073
0.000647958
-0.000938923
-0.00032908
-0.00117844
0.000445467
-0.000325141
0.000536968
0.00053759
2.79016e-05
-0.000605428
0.000577526
-0.00115054
-0.000122755
0.000349059
-0.000226304
-0.000728183
-0.000702546
0.00124014
0.00126673
0.00210008
-0.000341496
-0.000809043
-0.00176776
0.00121691
0.000883163
0.0010822
-0.000685552
-0.000286423
0.0003948
-0.000557873
-0.000676566
0.000221103
-0.000281766
-0.000125808
-0.000160615
-0.000544941
-0.000323838
-0.00126057
0.000321651
-0.00029256
-0.000608374
0.000315813
-0.000162907
-0.000502926
-5.49471e-05
0.000832006
-0.000510355
-0.000676338
0.000513432
-9.8812e-05
0.000368855
-1.97961e-05
0.000270043
-0.000219474
0.000199678
1.71762e-05
0.00014458
-0.000161756
-0.000202298
-0.000428602
-0.00025913
-0.000169472
-0.000112901
0.000262125
0.000424067
-0.00014907
0.000573137
0.00109107
0.00031711
-0.00057624
-0.000411073
-0.00122012
0.000468869
0.000622197
-0.000666479
-0.000553637
0.00135203
-2.15412e-05
0.000109784
0.000240583
0.000113855
-0.000274469
-1.08551e-05
-0.00046619
0.000184424
-0.000521137
-0.000100939
-0.000173531
-0.000424777
-0.000240353
0.000483538
2.98934e-05
-0.000799352
0.000288996
-0.000531813
1.0676e-05
-0.000242817
-0.000300727
0.00033062
-0.00034636
4.56335e-05
-7.63173e-05
-0.000238658
0.00016234
-3.89795e-05
-0.000131945
9.29658e-05
1.26345e-05
5.50331e-06
2.43612e-05
-2.98646e-05
1.27514e-05
-2.40362e-05
4.83974e-05
6.97588e-05
-9.37949e-05
8.23933e-05
-4.69085e-05
-4.68864e-05
-0.000208664
-2.42397e-05
-5.6248e-06
-7.11262e-05
-1.78634e-05
-0.000102231
-0.000106434
-0.000271702
-0.000104128
-0.000167575
-0.000680368
-9.41654e-05
0.000334749
0.000478972
0.00110117
-0.000443414
-0.000236953
0.000997051
0.000104118
1.86892e-05
2.61905e-05
0.000128473
4.65377e-05
8.19357e-05
0.000381287
5.40359e-05
-0.000227566
1.35432e-05
-7.32767e-05
-0.00015429
-0.00031363
-0.000302954
-0.000234852
-6.81023e-05
-0.000477669
-0.000147048
0.000191886
-2.95458e-05
-0.00023752
9.04713e-05
5.34378e-05
2.89555e-05
0.000146404
0.000116858
4.09611e-05
7.43629e-06
6.99167e-05
1.76972e-05
-4.91079e-05
-2.20183e-05
-0.000155542
-2.30675e-05
5.20403e-06
-4.50858e-05
-2.80829e-06
1.52043e-05
-1.22341e-07
4.13948e-05
-0.0001032
-5.23416e-05
-0.000270775
-0.000148577
-0.000122198
-0.00038553
0.000341972
3.93146e-05
0.00044609
6.05594e-05
9.40712e-06
3.19877e-05
9.13429e-05
0.000130658
9.70574e-05
-2.71408e-05
0.000213915
-0.000236284
8.19945e-05
-0.000304387
-1.85599e-05
-5.39372e-06
-8.04435e-06
7.92201e-06
-6.53419e-06
-4.07379e-05
-4.34789e-06
-9.30795e-05
-1.26995e-05
9.89117e-06
-1.70473e-05
6.24833e-06
1.14191e-05
-3.49714e-06
4.34068e-05
-7.51739e-05
-1.79056e-05
-0.000197372
-0.000136813
3.34166e-05
9.99026e-06
0.000164074
2.72615e-05
-8.38497e-06
4.88782e-06
5.07453e-06
-8.16687e-06
-1.45966e-06
-9.84463e-06
-7.65379e-07
-7.40149e-06
-3.46101e-06
-3.03164e-05
1.32691e-05
-4.8222e-05
-1.80736e-06
8.05569e-06
1.14618e-05
8.05833e-06
1.31193e-05
-8.23146e-06
2.31096e-05
3.0491e-05
-7.38149e-06
-5.77525e-05
9.53051e-06
-4.45573e-07
-9.39906e-06
-8.67703e-06
-2.51389e-06
-4.88761e-06
-1.1913e-05
-2.04002e-06
-6.92763e-06
2.82081e-06
8.64096e-06
1.23513e-05
-4.24225e-06
7.65352e-06
3.81607e-06
1.2457e-05
-2.55177e-06
-6.12526e-06
-9.93326e-06
-1.12291e-05
1.29584e-06
1.12223e-06
8.27775e-07
6.82575e-06
4.06074e-06
-8.15913e-06
-3.75382e-06
-1.42844e-05
-4.75372e-06
-8.50754e-06
5.00604e-07
6.32514e-06
1.29576e-05
1.40799e-05
-1.2954e-05
-1.33043e-06
1.16581e-05
2.42175e-06
2.13553e-06
8.46068e-06
-7.29277e-06
-8.6232e-06
-8.91384e-06
6.49209e-06
)
;

boundaryField
{
    movingWall
    {
        type            calculated;
        value           uniform 0;
    }
    fixedWalls
    {
        type            calculated;
        value           uniform 0;
    }
    frontAndBack
    {
        type            empty;
        value           nonuniform List<scalar> 0();
    }
    defaultFaces
    {
        type            empty;
        value           nonuniform List<scalar> 0();
    }
}


// ************************************************************************* //
