/*--------------------------------*- C++ -*----------------------------------*\
  =========                 |
  \\      /  F ield         | OpenFOAM: The Open Source CFD Toolbox
   \\    /   O peration     | Website:  https://openfoam.org
    \\  /    A nd           | Version:  8
     \\/     M anipulation  |
\*---------------------------------------------------------------------------*/
FoamFile
{
    version     2.0;
    format      ascii;
    class       volScalarField;
    location    "0.024";
    object      p;
}
// * * * * * * * * * * * * * * * * * * * * * * * * * * * * * * * * * * * * * //

dimensions      [0 2 -2 0 0 0 0];

internalField   nonuniform List<scalar> 
424
(
9.23241e-09
0.0559891
0.0135746
0.115185
0.0962308
0.247697
0.0995804
0.0511919
0.277398
0.49485
0.474893
0.487534
0.00814905
-0.152918
0.507403
0.749096
0.50684
0.512391
-0.422753
-0.186266
0.748479
1.00179
0.671856
0.67256
-0.675018
-0.43743
-0.378272
-0.393395
0.987698
1.26768
1.47234
1.5357
0.84978
0.847875
-3.52191
-0.88985
-1.1113
-1.38734
-0.677734
-0.412342
-0.417399
1.23382
1.42661
1.5229
1.41573
1.00712
1.00477
-2.88814
-2.65436
-0.888103
-1.12253
-1.17965
-0.57736
-0.578547
1.43306
1.47199
1.0285
1.02477
-2.27245
-1.13097
-0.760714
-0.758424
1.51881
1.67551
-1.05547
-0.624139
-0.948168
-0.947211
1.92472
1.70863
-0.0219676
-0.601173
-1.0169
-1.04114
2.18084
1.93715
1.89452
1.90743
0.72687
0.00717265
4.37516
2.40319
1.47237
2.10415
2.68275
5.25156
2.88199
2.61525
2.17863
1.94142
1.94703
0.732269
-0.385146
3.94707
2.39648
1.45795
2.08163
2.56904
4.5333
2.63864
2.62541
2.10399
2.10472
-0.163151
-0.410915
2.29222
2.2898
0.392164
-0.163499
2.48797
2.49265
0.977643
0.391603
2.5774
2.60823
1.55857
0.976599
1.81753
1.55363
1.8356
0.130435
0.0399001
0.0478269
0.0765864
0.0931343
0.165132
-0.0278822
0.0101851
0.223078
0.315933
0.331273
0.151144
0.176574
0.217781
0.334543
0.302708
0.294241
0.443432
0.457957
0.444719
0.0629097
-0.000614622
0.0688278
0.0355949
-0.017707
-0.0629919
-0.0418023
-0.160591
-0.0822675
-0.188351
-0.00055844
0.0447315
0.0699547
0.114812
0.303088
0.169894
0.362781
0.352943
0.488611
0.510567
0.582593
0.511868
0.597911
-0.033685
-0.0355693
-0.186019
-0.204342
-0.232559
-0.266179
-0.271654
-0.0495094
-0.280381
-0.0950731
-0.230676
0.642109
0.638215
0.75032
0.782722
0.678114
0.783764
-0.294667
-0.282709
-0.439853
-0.338931
-0.401053
-0.37869
-0.348954
0.885344
0.884905
0.985317
0.958558
1.05289
0.853423
0.943942
-0.547242
-0.673164
-0.503626
-0.555341
-0.419737
-0.515322
1.13497
1.14977
1.20712
1.21651
1.27417
1.22121
1.10981
1.18359
1.00524
1.08321
-0.790063
-0.88457
-0.697063
-0.778291
-0.583463
-0.701287
1.3255
1.30416
1.31696
1.35534
1.39985
1.38328
1.38006
1.38532
1.39005
1.49503
1.49839
1.44964
1.18619
1.27182
1.04133
1.18675
1.35429
1.3849
1.45413
-1.26575
-1.65514
-2.50268
-2.09097
-1.01919
-1.11772
-1.23113
-1.0192
-0.870159
-0.937883
-0.765412
-0.871731
-1.14754
-1.25644
1.50098
1.44693
1.45768
1.45201
1.51657
1.45687
1.46859
1.51798
1.56212
1.58779
1.68543
1.34042
1.43474
1.51264
1.49475
1.14239
1.26463
-1.48906
-1.42026
-1.63834
-1.23465
-1.08268
-1.10532
-1.15061
-1.00878
-1.07254
-0.944456
-1.02164
-0.85593
-1.19619
-1.10179
-1.07464
-1.11892
-1.22248
1.56574
1.62194
1.69735
1.55659
1.7344
1.72942
1.76018
1.78354
1.56478
1.77148
1.61176
1.73522
-0.821777
-0.724735
-0.944544
-0.595852
-0.698932
-0.564831
-1.09856
-1.10715
-0.746496
-0.757041
-1.02707
-1.1293
-1.03877
-1.07813
-1.24261
-1.17308
-1.05283
-0.75393
1.77532
1.78913
1.94008
1.86693
1.91127
1.88258
1.87111
-0.396935
-0.400552
0.0260433
-0.357468
-0.0577162
-0.410672
-0.345504
-1.40177
-1.31448
-1.08425
-1.21627
-1.15873
-1.51467
-1.48771
-1.19896
2.06595
2.18103
2.01404
2.06401
1.94512
2.02857
0.310476
0.736705
0.0736144
0.326198
-0.160734
0.144567
-1.13251
3.71279
4.06408
2.3127
2.39197
2.18838
2.31019
2.11028
2.20061
1.1448
1.45067
0.804706
1.1356
0.416357
0.79122
2.57692
3.13303
2.53341
2.61999
1.88776
2.07449
2.3735
2.73629
3.00904
2.74676
3.21521
2.64802
2.52279
2.40039
2.4725
2.29129
2.39267
1.90283
1.43777
1.52684
0.979936
1.35344
2.28244
2.92016
2.65897
2.6201
2.17686
2.20343
2.79726
2.67788
2.70018
2.67865
2.58132
2.59609
2.47899
2.58902
1.78904
2.03553
1.56723
1.76957
2.39509
2.65308
2.62728
2.64349
2.15537
2.3575
2.76731
2.63205
2.67509
2.59589
2.67
1.84065
2.11985
2.62552
2.97557
2.88544
2.52989
2.56585
3.0969
3.05752
2.63542
2.55362
)
;

boundaryField
{
    movingWall
    {
        type            zeroGradient;
    }
    fixedWalls
    {
        type            zeroGradient;
    }
    frontAndBack
    {
        type            empty;
    }
    defaultFaces
    {
        type            empty;
    }
}


// ************************************************************************* //
