/*--------------------------------*- C++ -*----------------------------------*\
  =========                 |
  \\      /  F ield         | OpenFOAM: The Open Source CFD Toolbox
   \\    /   O peration     | Website:  https://openfoam.org
    \\  /    A nd           | Version:  8
     \\/     M anipulation  |
\*---------------------------------------------------------------------------*/
FoamFile
{
    version     2.0;
    format      ascii;
    class       volScalarField;
    location    "8000";
    object      k;
}
// * * * * * * * * * * * * * * * * * * * * * * * * * * * * * * * * * * * * * //

dimensions      [0 2 -2 0 0 0 0];

internalField   nonuniform List<scalar> 
4109
(
0.0294931
0.0310435
0.0297415
0.031013
0.0317424
0.0314665
0.0319628
0.0301485
0.0330108
0.032545
0.0325709
0.0333187
0.0298492
0.031691
0.032409
0.0337109
0.0334961
0.03351
0.0338681
0.0325536
0.0298998
0.0313755
0.0314093
0.0345923
0.0346237
0.0350342
0.0295888
0.031626
0.0298766
0.0348557
0.0335083
0.0328084
0.0313739
0.031291
0.0322224
0.0351654
0.0350532
0.0361742
0.0318924
0.0298477
0.0315746
0.0317704
0.0302764
0.0355139
0.0341217
0.0954796
0.0479418
0.0334854
0.0329018
0.0312445
0.0322424
0.0358538
0.0366372
0.0379046
0.0336114
0.031795
0.0293641
0.0318971
0.0323664
0.0331458
0.0328779
0.121498
0.0367272
0.035103
0.0344441
0.0416784
0.0870474
0.0337479
0.032768
0.0324855
0.0393814
0.0373379
0.0425474
0.0413715
0.0411864
0.0341539
0.0340536
0.0326712
0.031161
0.0328946
0.0325822
0.0329289
0.0334803
0.0336141
0.0384349
0.0452485
0.100139
0.131043
0.132415
0.0379105
0.0375049
0.0358032
0.0351128
0.0345494
0.0384908
0.0665271
0.0337303
0.0325641
0.0427003
0.0410166
0.0398859
0.0429949
0.043713
0.0432582
0.0434024
0.0352869
0.0347662
0.0339336
0.0321075
0.0341318
0.0388435
0.0333684
0.0338816
0.0341181
0.0346741
0.138201
0.0527455
0.0664459
0.0893422
0.140021
0.13757
0.0432873
0.0397092
0.0385823
0.036838
0.0361073
0.0354207
0.0344097
0.0669206
0.0344509
0.033811
0.043123
0.0417124
0.0448116
0.0440366
0.0455689
0.0443332
0.035968
0.0356528
0.0355734
0.0337215
0.0348148
0.0399905
0.0339472
0.0345554
0.0350242
0.0352689
0.12486
0.0734858
0.140775
0.0934769
0.14383
0.0504019
0.0405643
0.0394826
0.0376552
0.0368704
0.0361798
0.0354499
0.0343818
0.0614546
0.0331607
0.0426388
0.0412535
0.0456743
0.0437598
0.046447
0.0468461
0.0476455
0.0371339
0.0366139
0.0363302
0.0345557
0.0358001
0.041212
0.0347742
0.0354559
0.0356977
0.0363703
0.0857431
0.156854
0.0884591
0.147536
0.147756
0.0511651
0.038783
0.0397309
0.0378945
0.0361476
0.0370804
0.0356176
0.0673008
0.0340349
0.0409557
0.0420216
0.0451887
0.0433404
0.0464316
0.0480914
0.0477229
0.0507254
0.0379034
0.0376176
0.03765
0.0361746
0.0360476
0.041433
0.035504
0.0361264
0.0367111
0.0370907
0.0883029
0.158457
0.154123
0.0931445
0.157214
0.0507722
0.0388934
0.0400826
0.0375247
0.0364924
0.0688147
0.0349181
0.0411787
0.0424252
0.0445454
0.0436488
0.0459791
0.0480246
0.0491898
0.051137
0.053491
0.0391801
0.0385743
0.038398
0.0372315
0.0369124
0.0424615
0.0370112
0.0362537
0.0400884
0.0375824
0.0382753
0.0848961
0.166436
0.0967883
0.161539
0.163424
0.0516259
0.0392032
0.0399782
0.0378968
0.0722191
0.0353529
0.0415114
0.0424203
0.0449574
0.0439933
0.0463103
0.0473383
0.0495491
0.0514384
0.0529531
0.0570317
0.0401948
0.0393394
0.0387303
0.041063
0.0372225
0.0428828
0.0374982
0.0414013
0.0391362
0.0387238
0.173593
0.0846212
0.168893
0.100558
0.17355
0.0522189
0.178178
0.039002
0.040352
0.0738805
0.0361575
0.0414868
0.0426747
0.0450578
0.0440028
0.0466196
0.0476818
0.0489256
0.0514042
0.0533722
0.0562288
0.0566062
0.0607034
0.0393255
0.0407661
0.0390695
0.0422313
0.042458
0.0379197
0.043716
0.0391343
0.0404115
0.0397641
0.0849746
0.181509
0.175596
0.0991225
0.179865
0.0529393
0.192185
0.184677
0.201925
0.165711
0.185362
0.156429
0.0883296
0.0370703
0.0403151
0.0423385
0.0432155
0.0439437
0.0454345
0.046757
0.0477076
0.0491797
0.0578432
0.0504672
0.0532129
0.0559856
0.0613238
0.0648614
0.0632742
0.0693733
0.0416362
0.0411542
0.043447
0.0438744
0.0414032
0.039233
0.0452226
0.0398999
0.0409902
0.087493
0.194268
0.181029
0.0528674
0.291805
0.259642
0.201859
0.172462
0.195364
0.221414
0.0754763
0.0759825
0.0811417
0.159978
0.149359
0.151417
0.148046
0.159317
0.150556
0.038721
0.0452335
0.0452829
0.0459878
0.0606697
0.0470052
0.0479489
0.0493294
0.0507211
0.0577031
0.0522391
0.0552907
0.0651246
0.0617056
0.0681427
0.0678822
0.0765104
0.0808355
0.0429087
0.0436708
0.0450706
0.0450186
0.0427835
0.0421231
0.0402973
0.0449208
0.0414816
0.0915162
0.218399
0.302446
0.258241
0.177273
0.194673
0.221846
0.0795141
0.0814118
0.0869646
0.0826626
0.085638
0.132774
0.139184
0.139541
0.147218
0.160072
0.240377
0.119256
0.0441239
0.0474636
0.0471607
0.0600608
0.0611583
0.0491738
0.0491162
0.0506093
0.0523905
0.05714
0.0540081
0.0657927
0.0637523
0.0692208
0.0721347
0.0768433
0.0786503
0.0456585
0.0449447
0.0423631
0.0475729
0.0465223
0.0439286
0.0434544
0.0497168
0.0429093
0.041791
0.0498502
0.0973067
0.294377
0.324317
0.260233
0.176716
0.19758
0.225335
0.0820357
0.0895074
0.0979474
0.087682
0.0919248
0.122685
0.10927
0.0871524
0.0904033
0.129305
0.137202
0.147586
0.158635
0.257657
0.211399
0.0650483
0.0491768
0.049675
0.0593154
0.0612047
0.0502859
0.0506703
0.0523627
0.0541236
0.0560351
0.0663927
0.0639626
0.0696927
0.0728347
0.074904
0.0782349
0.0475254
0.0496678
0.0476117
0.0438727
0.043934
0.0454458
0.0467594
0.0447534
0.0509279
0.0485202
0.169917
0.222053
0.0434372
0.0412711
0.304913
0.257193
0.255513
0.326934
0.265677
0.17739
0.199507
0.230036
0.0861815
0.0808368
0.0934813
0.0994576
0.0972087
0.107371
0.118065
0.0920539
0.0961632
0.127289
0.134558
0.147115
0.162411
0.318249
0.273406
0.319553
0.0649518
0.0524502
0.0511498
0.0581017
0.0604347
0.0523506
0.0522429
0.0538896
0.0560982
0.0628431
0.0655458
0.0683769
0.0715453
0.07466
0.0773511
0.0791724
0.05073
0.0507088
0.0453182
0.0450457
0.0462647
0.0476403
0.0493121
0.0529671
0.0500676
0.0451153
0.0510817
0.0557009
0.31422
0.260681
0.243283
0.192409
0.191702
0.331402
0.261553
0.17987
0.190323
0.209855
0.0906919
0.0845432
0.0826236
0.117015
0.102104
0.106039
0.0975871
0.101434
0.125649
0.133304
0.149907
0.164021
0.0870262
0.350388
0.329247
0.352846
0.0777317
0.0551253
0.0538545
0.0581752
0.0604453
0.0540303
0.0539129
0.0560533
0.0628484
0.0654781
0.0682847
0.0713624
0.0739964
0.0759228
0.0790993
0.0798324
0.0532129
0.054194
0.0469657
0.046971
0.0482613
0.0496738
0.0508926
0.0548004
0.0517955
0.0508241
0.0469148
0.0479
0.311106
0.166955
0.230566
0.222496
0.192826
0.334703
0.262779
0.175032
0.195203
0.215467
0.241861
0.0956993
0.0839853
0.0893884
0.0840318
0.103494
0.114226
0.108682
0.12574
0.138973
0.152621
0.160453
0.0879183
0.386871
0.37144
0.405544
0.0809135
0.0590823
0.0559648
0.0604227
0.0579751
0.0560393
0.056197
0.062665
0.0653808
0.0709956
0.0679701
0.0733245
0.0758573
0.0759436
0.0787373
0.0821519
0.056871
0.056096
0.0573878
0.04892
0.0487301
0.0508966
0.0524992
0.0535602
0.0530926
0.048764
0.0504322
0.316673
0.255876
0.144123
0.150031
0.205882
0.197877
0.174268
0.271596
0.331827
0.178324
0.194489
0.211276
0.236283
0.101053
0.0855576
0.0936483
0.0868778
0.0896802
0.110237
0.114315
0.106576
0.127834
0.140724
0.150769
0.164765
0.114236
0.425756
0.426227
0.439767
0.0927244
0.0628348
0.0580691
0.0606818
0.0582862
0.0580179
0.0632399
0.0653627
0.0704024
0.0681896
0.0741608
0.0760721
0.0781835
0.0808135
0.083856
0.060124
0.0598697
0.0596107
0.0555849
0.0509802
0.0510868
0.0525645
0.0534746
0.0544421
0.0507344
0.0545734
0.332287
0.280528
0.242757
0.220205
0.125446
0.133328
0.147221
0.189091
0.178081
0.162938
0.112964
0.273096
0.326601
0.331985
0.177865
0.194801
0.225571
0.211584
0.0993951
0.0881184
0.0924775
0.0893789
0.112206
0.119609
0.105151
0.165273
0.130088
0.137725
0.152394
0.113135
0.473121
0.482259
0.50531
0.0599297
0.0994938
0.0645951
0.0611476
0.0607649
0.066695
0.0651655
0.0716397
0.0720622
0.0693426
0.0750061
0.0783801
0.0814367
0.0646471
0.0625503
0.0620266
0.0576443
0.0568252
0.0527316
0.0522501
0.0541413
0.0559709
0.0525816
0.0562058
0.0689927
0.0741641
0.276864
0.245261
0.214982
0.196168
0.120339
0.135278
0.150085
0.170769
0.160963
0.108479
0.0999263
0.0926451
0.0825023
0.0790683
0.316712
0.265745
0.316411
0.271536
0.166291
0.179113
0.192034
0.220965
0.0985759
0.0905874
0.093406
0.120369
0.112729
0.105503
0.102385
0.152049
0.151899
0.129711
0.141208
0.136824
0.56193
0.529984
0.526431
0.0666848
0.101134
0.0631769
0.0643481
0.0721648
0.0683714
0.0746815
0.0773104
0.0802706
0.0648863
0.0643759
0.059975
0.0586213
0.0573937
0.054906
0.0544396
0.0561992
0.0607745
0.054678
0.0761813
0.0696917
0.0729739
0.240222
0.219898
0.193322
0.175527
0.120687
0.137632
0.147274
0.15429
0.11371
0.0996839
0.102293
0.0776867
0.0909418
0.0802071
0.0844412
0.270056
0.251219
0.237679
0.216712
0.160549
0.174382
0.199627
0.149446
0.0968161
0.0934655
0.117314
0.108098
0.113227
0.106384
0.100771
0.142453
0.14388
0.130359
0.109723
0.615712
0.59587
0.585952
0.0834925
0.105991
0.0673842
0.0611325
0.0717543
0.0755894
0.078888
0.0673075
0.0623843
0.0612879
0.0601526
0.0581436
0.0566674
0.0559436
0.058619
0.0562867
0.0741111
0.0703321
0.211557
0.215162
0.197772
0.17387
0.157331
0.127472
0.135488
0.140605
0.116536
0.110487
0.102395
0.078811
0.0817585
0.0956394
0.0849412
0.0893226
0.224162
0.214856
0.211726
0.196732
0.140615
0.162656
0.171076
0.151435
0.194424
0.0963315
0.12077
0.11463
0.111044
0.10422
0.0994699
0.123612
0.130032
0.131213
0.115759
0.730887
0.687006
0.732744
0.133453
0.0708371
0.0790725
0.0747129
0.0781521
0.0650864
0.063498
0.0619533
0.0605186
0.0588309
0.0584205
0.0597666
0.058753
0.0741441
0.0679301
0.194005
0.195429
0.176158
0.155573
0.1426
0.125506
0.129216
0.116374
0.108725
0.101897
0.0777907
0.0812213
0.0959921
0.0856277
0.0902391
0.196333
0.189997
0.172801
0.126195
0.132678
0.142127
0.150054
0.175249
0.112162
0.107061
0.101981
0.117577
0.11505
0.122635
0.126136
0.855478
1.17249
0.321301
0.0750199
0.0880336
0.0781135
0.0665036
0.0650156
0.0628517
0.0610207
0.0603374
0.0621992
0.0711032
0.0691893
0.175154
0.173412
0.156032
0.141084
0.130885
0.119481
0.111175
0.103882
0.0975483
0.0744834
0.0782483
0.0918788
0.0823183
0.0868735
0.171672
0.173264
0.15635
0.127904
0.133963
0.140934
0.12328
0.155992
0.108651
0.104318
0.112294
0.113359
0.118378
0.198916
1.66908
1.61399
0.579441
0.080102
0.122169
0.0672455
0.0655821
0.0627102
0.0633864
0.0690059
0.0726282
0.0706923
0.156781
0.156541
0.14143
0.129762
0.12095
0.112623
0.105219
0.0989907
0.0758741
0.079843
0.0932561
0.0837555
0.0884257
0.154182
0.154669
0.142085
0.125249
0.129737
0.118804
0.141626
0.106208
0.10896
0.109898
0.112766
4.05692
0.331386
2.33332
2.47955
1.16873
4.49706
0.0682296
0.0658029
0.067072
0.0668073
0.0772084
0.0734344
0.0713263
0.139985
0.140841
0.130337
0.120652
0.112196
0.10549
0.0990715
0.0773421
0.0806351
0.0940963
0.08502
0.088967
0.13751
0.137775
0.13022
0.119148
0.112973
0.127975
0.130351
3.27191
3.60152
0.63593
3.59951
3.58063
4.8854
3.96696
6.43334
0.0691852
0.0659337
0.0704063
0.0706082
0.0943024
0.0744883
0.0709336
0.13114
0.130744
0.120701
0.112466
0.105464
0.0995873
0.0780783
0.0817625
0.094423
0.0898919
0.0856633
0.129611
0.122246
0.113346
0.120803
0.12326
0.122457
2.21283
2.8607
3.18073
1.20755
4.51377
3.4814
6.20023
6.25897
0.0709382
0.0705045
0.0754163
0.134873
0.075358
0.0715701
0.11844
0.118977
0.11166
0.104913
0.0994222
0.0779733
0.0825346
0.094641
0.0904024
0.0862713
0.122343
0.115437
0.116253
0.11843
0.116892
0.116214
1.93754
1.80981
2.49665
2.78416
3.44196
5.8632
4.1078
3.02869
5.86388
6.05938
0.073159
0.0746845
0.0803122
0.0744934
0.0754618
0.0775517
0.114041
0.106965
0.102066
0.0968116
0.0814784
0.0818164
0.0937359
0.0890155
0.086767
0.115173
0.112629
0.113614
0.1119
0.110958
1.52372
1.47774
2.16404
2.3952
6.31196
2.98052
5.59539
5.42204
3.68314
2.58972
5.49529
5.85208
0.074905
0.0774275
0.0775023
0.0788069
0.0819796
0.109998
0.105375
0.101391
0.0970378
0.0836365
0.0848371
0.0936755
0.0902973
0.0875766
0.109164
0.107279
0.105298
6.14597
1.19377
1.20119
1.84528
1.983
5.89638
2.58174
5.25545
5.15521
4.96542
3.23828
2.13127
5.09648
5.64053
0.0772141
0.0780759
0.0802061
0.0816223
0.104231
0.10242
0.0998783
0.0967539
0.0841734
0.086286
0.0938316
0.0910668
0.0885804
6.73226
5.57208
0.934057
0.961395
1.51148
1.4682
5.43245
2.22676
5.10367
4.80235
4.70486
4.4912
2.74406
1.57431
4.6544
5.42215
7.71428
6.19445
5.00228
0.725809
0.737702
1.09828
0.598992
4.94376
1.88985
4.9609
4.68338
4.35588
4.24504
3.98879
2.11201
0.67042
4.12966
5.19121
8.42281
7.31231
5.61311
4.43895
0.548997
0.491841
0.398223
4.42953
1.55532
3.49745
4.65086
4.26076
3.91294
3.76509
3.42517
1.04656
3.41827
9.77883
7.94401
6.84045
4.99994
3.87355
0.367071
0.127301
3.85921
1.36416
2.74135
3.05156
4.32771
3.83808
3.46208
3.23632
2.71291
2.17251
11.2161
8.98546
7.4878
6.29731
4.36033
3.2776
0.0832675
3.12245
1.42687
2.37757
2.6299
3.98896
3.40465
2.97479
2.5782
1.5123
11.8431
11.1954
8.06463
7.02292
5.6584
3.6791
2.56263
1.71949
1.3082
1.27814
2.05781
2.21926
3.62336
2.93457
2.37899
1.48401
12.121
11.5251
10.929
7.07333
6.51617
4.88719
2.88947
1.35722
1.48532
1.1987
1.14332
1.76393
1.80844
3.20541
2.3587
1.39287
8.1845
12.1266
10.9385
10.3768
6.03197
5.95461
3.9376
1.65694
1.59759
1.38047
1.09209
1.01807
1.48112
1.38859
2.6675
1.41467
6.91991
8.06619
11.8607
10.0692
9.5208
5.00151
5.17872
2.56345
1.60919
1.48252
1.27299
0.984481
0.895863
1.19434
0.949025
1.76074
6.28701
6.62094
7.72469
11.3887
8.97484
8.30255
4.25383
3.46471
1.51209
1.49314
1.36502
1.15978
0.870482
0.763159
0.869455
0.468738
6.30059
6.10249
6.19858
7.22115
10.6531
7.64067
6.74905
3.36292
1.33094
1.40528
1.37476
1.24211
1.03574
0.740106
0.587323
0.403833
6.85012
6.09901
5.78692
5.70368
6.61525
9.5216
6.08603
5.90009
1.42722
1.21902
1.29608
1.25104
1.10838
0.889697
0.566478
0.262902
8.07521
6.54363
5.77294
5.38208
5.15305
5.93083
7.62521
3.77087
2.64718
1.27943
1.11041
1.18128
1.11655
0.952088
0.691082
0.250272
12.0255
7.94504
6.1234
5.36248
4.90341
4.53608
5.12267
5.11907
3.54042
2.30464
1.14511
1.00098
1.05554
0.959441
0.741514
0.334359
11.7553
12.0085
7.60157
5.63336
4.88032
4.34295
3.80759
4.02967
4.95584
3.081
1.9987
1.0201
0.885029
0.907594
0.747941
0.371152
11.0539
11.4516
11.7164
7.09866
5.08808
4.31721
3.65715
2.87755
5.13981
4.64472
2.64863
1.71436
0.89768
0.752539
0.706826
0.377036
9.81892
11.0601
10.9217
11.1498
6.48334
4.47772
3.62869
2.76496
5.23688
4.71753
4.32291
2.23232
1.43931
0.764147
0.576797
0.348473
8.41599
9.06097
10.8575
10.1768
10.3391
5.74635
3.75179
2.72859
5.56604
4.7809
4.29224
3.98432
1.8186
1.15986
0.587332
0.25932
7.77246
7.95705
8.19067
10.4134
9.25428
9.19936
4.82643
2.80337
5.85959
5.12653
4.3343
3.86735
3.61868
1.39768
0.842432
0.262801
6.75361
7.36489
7.53222
7.30687
9.77172
8.2643
7.70023
3.5209
6.65217
6.26582
5.42423
4.67816
3.89328
3.43159
3.1992
0.951741
0.383046
6.13634
6.22206
6.89435
7.10644
6.42062
8.95049
7.24497
6.06931
5.08236
6.44251
5.9382
4.97196
4.2203
3.44421
2.95746
2.65535
0.456038
6.24907
5.5615
5.64288
6.36307
6.64537
5.52975
7.92834
5.78775
3.40877
4.53465
4.68583
6.22495
5.56937
4.49937
3.74157
2.95739
2.37274
1.726
5.84684
4.99022
5.02485
5.73116
6.10762
4.80394
6.44928
2.94437
2.06762
4.31029
4.02604
4.25853
6.00328
5.16695
3.99694
3.21256
2.36044
1.40381
2.44267
3.5627
5.39525
4.42588
4.37838
4.96411
5.31217
3.56465
2.53724
1.63363
3.82445
3.54563
3.81494
5.77791
4.71735
3.43169
2.55234
1.35591
1.98656
3.13519
4.91566
3.86079
3.69471
4.01694
3.5193
2.18495
1.28415
3.37742
3.09089
3.34973
5.54636
4.18029
2.7126
1.43968
1.61979
2.74879
4.40957
3.26612
2.90296
2.63984
1.85612
1.00829
2.95766
2.6462
2.83216
5.30097
3.44643
1.48569
1.31475
2.39042
3.8447
2.55438
1.6798
1.55411
0.786099
2.54654
2.17944
2.16826
2.14588
1.05077
2.04461
3.1144
1.35918
1.36811
0.595991
2.11087
1.60584
1.04412
0.80583
1.68127
1.73092
0.399709
1.56797
0.662556
0.539182
1.23208
0.0958846
0.64667
0.148614
0.474809
0.0862871
0.0843409
0.0856279
0.0856374
0.0870847
0.0868569
0.0875061
0.0875385
0.0882495
0.082738
0.0838419
0.0842683
0.085468
0.0857857
0.0869331
0.0875458
0.0918801
0.0933096
0.0946501
0.0968895
0.0983373
0.0884446
0.0892437
0.0882733
0.0884322
0.0887419
0.0883793
0.0896063
0.089337
0.0903769
0.101024
0.102181
0.0814158
0.0825202
0.0831421
0.084232
0.0848572
0.0858043
0.0867987
0.0878894
0.0888486
0.0898276
0.0909307
0.0922947
0.0940741
0.0955697
0.0986354
0.10013
0.105624
0.106372
0.0902313
0.0911046
0.0921595
0.0931213
0.094497
0.0959427
0.0983184
0.089636
0.0900936
0.0896197
0.0896329
0.0905179
0.0898748
0.0918757
0.091356
0.0927015
0.098148
0.0999626
0.110612
0.112285
0.104862
0.104614
0.109693
0.080411
0.0814369
0.0823017
0.083311
0.0842611
0.0852599
0.0864628
0.0873957
0.0891224
0.090209
0.0916667
0.0929787
0.0970199
0.0984549
0.101463
0.102638
0.107157
0.108419
0.113555
0.115699
0.122057
0.12217
0.129159
0.0910776
0.0918022
0.092763
0.0937809
0.0952504
0.0908134
0.0910862
0.0911649
0.090853
0.0924218
0.0916466
0.09512
0.094064
0.0933456
0.0956635
0.0993151
0.0995469
0.104586
0.106212
0.125777
0.113787
0.121433
0.110559
0.113462
0.0800095
0.0809396
0.0820822
0.0830794
0.0843415
0.085256
0.0867395
0.087653
0.0892625
0.0902284
0.0924696
0.0946029
0.102735
0.0998679
0.106135
0.108674
0.113112
0.1146
0.119478
0.129216
0.134874
0.135716
0.149451
0.152072
0.145757
0.154297
0.154886
0.196039
0.0920557
0.0928143
0.0936351
0.0945879
0.097469
0.096225
0.0920966
0.0921331
0.092779
0.0923017
0.0952382
0.0942256
0.0934811
0.0996736
0.0983496
0.0959508
0.0983955
0.100293
0.248642
0.21473
0.307484
0.1047
0.105011
0.11053
0.112769
0.127373
0.129468
0.165372
0.14461
0.121897
0.127949
0.0807286
0.0813172
0.0829346
0.0835489
0.0853362
0.085883
0.0878739
0.0886488
0.0917833
0.0910422
0.0953388
0.0967414
0.101577
0.103927
0.113511
0.111702
0.120929
0.129714
0.136713
0.137475
0.149322
0.71397
0.701992
0.493554
0.162309
0.171125
0.186408
0.1927
0.202523
0.217809
0.218422
0.491082
0.292808
6.43672
7.00306
6.85419
6.54037
7.16316
7.1851
6.95621
6.58298
0.093196
0.0935579
0.0945594
0.0954937
0.0971854
0.0961145
0.093479
0.0932972
0.0952796
0.0944605
0.0939421
0.1019
0.100516
0.0992003
0.0980618
0.0967054
0.0996346
0.105659
0.101573
0.104959
6.03563
5.06809
1.86188
1.31902
0.77243
0.174875
0.249615
0.305584
0.564603
0.112767
0.113132
0.114116
0.113671
0.125785
0.127875
0.139712
0.136075
0.164179
6.22905
6.91991
4.54357
7.14363
7.20532
7.18991
5.44522
6.0789
6.16759
7.17395
0.0869318
0.0845225
0.0886501
0.0873109
0.091044
0.0900381
0.0936381
0.0934707
0.0966087
0.0963936
0.100452
0.10041
0.108241
0.111105
0.116774
0.115787
0.121453
0.14689
0.124646
0.159784
0.211188
0.203545
0.247666
0.248816
0.244002
1.27978
1.78612
3.41988
2.4849
1.29557
0.996364
0.356755
0.394831
0.498937
0.505112
1.02129
0.596017
0.579913
3.88657
6.05863
4.96652
5.26931
6.15819
6.68973
6.9224
6.91554
4.97665
4.92451
7.12829
7.08231
5.57531
5.79477
6.38246
7.01939
6.59963
6.96451
0.0944608
0.0946746
0.0955559
0.0968519
0.0972286
0.0962144
0.0957139
0.0950039
0.094638
0.103986
0.102515
0.101115
0.0999382
0.0988843
0.0978917
0.0975092
0.100508
0.100885
0.104794
0.105299
0.109686
0.104603
2.68304
4.52684
3.52987
5.91356
4.61555
1.67604
2.70571
1.43449
0.752833
0.11314
0.60948
0.200336
0.348075
0.255907
0.123357
0.120196
0.128989
0.12426
0.132184
0.130918
0.149115
0.143204
0.200544
6.24614
7.08736
5.9463
4.28936
4.70183
3.65257
7.32302
7.42693
7.24681
5.9959
4.52801
5.6149
0.188883
0.103197
2.10992
0.646717
0.135768
0.105382
0.124283
0.105193
0.119337
0.10461
0.117813
0.112367
0.109792
0.121405
0.120442
0.142995
0.176027
0.165016
0.201367
0.283324
0.252532
0.336682
0.661763
0.377518
0.407548
0.903181
1.02972
0.552108
0.485786
0.65588
0.633624
0.798696
0.799516
1.92824
2.54657
3.68255
2.97786
2.08533
1.51551
1.16523
1.16952
1.7574
1.31089
1.42941
4.93831
4.32167
5.15448
6.1693
5.86761
6.84947
6.64558
7.10494
7.01132
7.05381
5.2203
5.77704
6.98932
7.00346
6.84503
6.81352
6.5118
0.0976851
0.0956964
0.095757
0.0966033
0.0971998
0.0964497
0.0961672
0.0983373
0.106113
0.104606
0.103011
0.101721
0.100582
0.0994377
0.0988004
0.0978642
0.108095
0.10574
0.107976
0.110326
0.108803
0.110229
0.101442
0.101334
0.10178
0.103439
0.114025
0.108278
0.109717
0.105484
4.62894
4.09852
3.03539
0.983641
2.5349
1.74101
0.119385
0.133308
0.131743
1.09813
0.262799
0.561025
0.364272
0.144236
0.139856
0.152531
0.148536
0.175922
0.165093
0.27682
4.41575
6.61345
7.22235
6.23287
5.30781
7.45517
3.35734
3.9057
2.72634
7.66186
7.44939
6.66638
5.50191
4.00019
4.74003
4.74056
1.19312
0.34058
4.56652
3.58409
0.68653
0.335009
0.521613
0.25447
0.401542
0.21626
0.342357
0.182558
0.247592
0.446132
0.780103
0.554954
0.962874
0.620932
0.758331
1.34629
1.67198
1.83004
1.18527
1.19738
1.86086
2.09378
1.24453
1.37528
1.67289
1.5839
1.95959
1.67426
3.94897
2.766
3.31096
3.14297
2.68347
2.53652
2.90854
2.1899
2.70105
5.38846
4.52424
6.74383
6.05936
6.36834
7.0747
6.97255
6.9216
7.00115
6.52596
6.61375
0.10997
0.108458
0.0970659
0.0982448
0.097538
0.0969996
0.0970137
0.098575
0.0997002
0.104782
0.102922
0.102217
0.10075
0.100236
0.0991505
0.098847
0.0980958
0.106734
0.104837
0.105984
0.107102
0.105414
0.106762
0.101112
0.101726
0.10303
0.105648
0.12059
0.113655
0.114414
0.10886
1.79887
2.65222
3.52792
0.129603
0.142684
0.141329
0.163866
0.159294
0.784098
1.83913
0.360409
0.709436
0.1987
0.182771
0.274056
0.236135
0.369547
3.59592
5.1288
4.76283
6.87848
6.98506
7.36287
7.79339
7.72017
2.65538
3.60348
7.40902
6.47193
5.72707
4.05212
4.76352
4.77069
2.08624
4.79468
5.11643
5.63864
3.79037
2.39495
5.7865
6.27721
3.38025
1.73725
2.62086
1.2312
2.01861
1.02304
1.35993
1.58019
1.20683
2.18781
1.79519
1.73112
1.70387
1.82583
2.77657
2.87101
2.99914
3.31604
2.53543
2.37386
3.40252
3.59097
2.57452
2.82568
3.3045
3.11541
3.49666
4.70714
4.18893
4.54791
3.71747
4.26338
4.23142
3.98987
4.41051
6.37112
5.70622
6.97045
6.81796
6.91186
6.92613
6.35251
6.45674
0.111828
0.109318
0.107507
0.106011
0.0985781
0.0984299
0.0987407
0.0995361
0.100674
0.103867
0.102439
0.101764
0.100651
0.100239
0.0994196
0.099465
0.103702
0.104573
0.103088
0.104272
0.103446
0.104478
0.102071
0.102164
0.104004
0.109881
0.105718
0.102606
0.130518
0.121553
0.122599
0.115448
0.138638
3.15764
2.29753
0.154956
0.151602
0.184927
0.179572
0.263747
0.312806
0.249567
0.790953
2.0769
0.956372
0.498911
0.416878
0.863147
5.07825
4.23269
7.38333
6.75885
7.96379
7.8498
7.56622
7.28931
6.88392
6.5383
0.210292
0.705287
4.68036
5.55243
1.28234
3.89448
5.77813
5.47016
6.30827
6.0583
5.52901
6.20881
5.92859
5.31235
5.37355
3.55653
4.28995
3.2963
2.92012
2.89785
4.23721
3.34029
4.18593
3.51526
3.69377
4.28955
4.65829
4.60107
4.71081
4.25136
4.11739
3.76077
4.91969
5.09245
4.25935
4.44533
5.1151
5.01038
5.81469
6.07979
5.63452
5.50584
5.80963
5.48519
5.69661
6.82109
6.70124
6.68383
6.72478
6.07306
6.1764
0.0882714
0.109201
0.112428
0.111046
0.109207
0.106993
0.105569
0.104043
0.0996432
0.0998259
0.100167
0.100278
0.102637
0.102369
0.101657
0.10091
0.10042
0.10006
0.101263
0.102194
0.101461
0.102485
0.102115
0.103026
0.102247
0.106258
0.107078
0.116226
0.105187
0.106729
0.142529
0.126309
0.130063
0.117134
0.159533
0.186255
0.168499
4.47206
2.79414
0.249276
0.210226
0.490145
0.408154
1.21253
1.04652
0.88415
2.32886
3.05922
1.65861
7.3419
6.22722
8.09618
8.21243
7.95818
7.56388
7.10542
6.74721
0.14777
0.452912
4.10862
6.35629
0.844053
2.38481
6.33678
6.15559
5.94287
6.54576
6.07201
5.58294
6.94264
6.237
6.87155
6.45785
6.04478
6.03679
5.64049
4.70212
4.75372
5.93696
5.41727
5.16846
5.39482
5.61126
5.49965
5.75661
5.68196
5.63631
5.58239
5.88737
5.13186
5.41419
5.92299
5.91082
5.63843
5.73406
6.03609
6.07612
6.29367
6.22838
6.63637
6.40254
6.38118
6.46197
6.51017
5.76745
5.9204
0.0813052
0.0851297
0.089467
0.108387
0.111028
0.110167
0.108877
0.108317
0.106996
0.105156
0.102738
0.104171
0.107606
0.108723
0.10144
0.100384
0.0997188
0.0998976
0.100681
0.0999316
0.0998272
0.100272
0.100895
0.100628
0.101575
0.101465
0.102139
0.103057
0.105539
0.108806
0.114504
0.11724
0.110772
0.13905
0.163175
0.12575
0.142485
0.177433
0.231125
0.200427
0.250156
0.389524
0.284808
6.40921
5.35173
1.11799
0.81759
2.5276
1.97256
4.38635
5.80114
3.95136
8.41236
8.36411
8.50054
8.02517
7.70579
7.19512
0.132745
0.319951
3.27307
6.21657
0.55895
1.5859
6.09937
6.91303
5.33415
5.50437
6.67882
5.91884
6.84435
6.61169
5.25085
5.76544
6.50703
6.38559
6.50635
6.22897
6.43509
5.79578
5.9936
6.12446
6.1213
5.87715
5.92087
5.76591
5.79611
5.75968
5.65378
5.70004
5.57782
5.42388
5.41711
5.94659
5.93568
5.96723
5.85128
6.00707
5.95804
5.98493
5.86732
5.9954
6.23288
6.29573
6.00679
5.58531
5.75079
0.07985
0.0815293
0.0836277
0.0882576
0.0916167
0.107558
0.107288
0.106747
0.105892
0.105941
0.101945
0.103819
0.103084
0.104861
0.105327
0.105129
0.104386
0.105593
0.103394
0.103374
0.101401
0.101474
0.103492
0.100556
0.100018
0.100394
0.100161
0.101775
0.10029
0.100535
0.100847
0.101112
0.101415
0.101964
0.102342
0.10569
0.111399
0.10774
0.115609
0.12437
0.122126
0.130428
0.158503
0.182938
0.142564
0.161919
0.212147
0.277096
0.678382
0.61244
0.483899
0.913942
1.83636
1.79459
8.61216
7.78338
4.25631
4.42591
6.74998
7.9178
6.74811
9.18967
8.70913
8.47284
8.0376
0.12542
0.244962
2.48018
5.11481
0.386094
1.081
5.20519
7.04073
5.64775
5.1575
6.79143
6.34767
5.66374
5.30655
4.96194
4.94021
6.01052
6.12607
5.20828
5.65341
5.4016
5.83877
5.75957
5.79505
5.78924
5.42191
5.45112
5.01483
5.00205
4.89209
5.17015
4.77344
4.62985
4.06478
3.69961
4.36666
4.45207
5.39112
5.81374
5.81691
5.30349
5.40241
5.45368
5.40797
5.04278
5.47738
0.104989
0.0799018
0.0807011
0.0819052
0.0839155
0.0863093
0.0906092
0.0941693
0.0809468
0.0809733
0.0825055
0.0822592
0.0844164
0.0837399
0.0994837
0.0998618
0.0976156
0.0980871
0.095614
0.0962185
0.0934578
0.0942584
0.086642
0.0856732
0.0889928
0.0876985
0.091249
0.0921053
0.0898988
0.104495
0.103983
0.103446
0.103806
0.102818
0.102497
0.103224
0.102315
0.102511
0.101934
0.103083
0.100439
0.100736
0.098546
0.0988951
0.102414
0.100981
0.10222
0.100842
0.101599
0.101809
0.101608
0.101806
0.102009
0.102694
0.103011
0.103095
0.102794
0.103467
0.109282
0.105132
0.11875
0.11247
0.123752
0.137596
0.132696
0.14878
0.186616
0.234847
0.168158
0.200746
0.292318
0.635855
3.16172
2.39572
3.23993
1.4686
3.15477
5.22738
6.03243
9.54343
9.42223
8.36495
9.49236
8.55048
9.6561
8.84413
0.118724
0.195667
4.60849
1.71759
2.76459
0.285356
0.752217
6.18863
6.87954
5.7949
5.20484
6.58353
6.1333
6.62731
4.7733
4.6834
4.68906
5.27867
5.18846
4.42676
4.66454
4.68005
4.42982
4.85235
4.99537
4.53548
4.47189
4.0764
4.01888
3.5398
3.6096
3.8325
2.86455
2.87763
2.5735
2.58384
3.31443
4.85853
4.73316
3.61416
4.18001
4.02301
0.105171
0.0928911
0.0964378
0.0817869
0.0827031
0.0843197
0.08659
0.0892321
0.0826015
0.0829237
0.0837866
0.0838489
0.0852591
0.0851752
0.0966905
0.0972925
0.0948326
0.0956538
0.0928283
0.0938451
0.0907282
0.0920259
0.087043
0.0866919
0.0887901
0.0901208
0.0883473
0.102436
0.101959
0.101719
0.102487
0.102299
0.100005
0.100502
0.100096
0.10115
0.0982451
0.0987095
0.0964144
0.0969364
0.102126
0.102778
0.102457
0.104147
0.103578
0.103976
0.104321
0.10383
0.104637
0.105737
0.104367
0.104614
0.104146
0.112442
0.107891
0.108356
0.126984
0.117298
0.133926
0.156678
0.151245
0.177427
0.208786
0.422443
0.204706
0.275176
0.616205
1.99335
6.18855
6.92849
6.09725
7.35672
3.97708
6.84212
8.50897
9.46642
10.4529
10.1618
10.2582
0.116309
0.146137
0.201081
2.92358
4.90788
1.11627
2.17693
0.444656
5.46927
6.40803
5.35438
4.77197
5.88377
5.50219
6.33784
6.47737
6.05873
5.81065
4.21267
4.3655
4.39348
4.28833
3.94383
4.01384
3.9285
3.81745
3.96301
3.98701
3.62796
3.6015
3.11161
3.19179
2.53071
2.64748
2.09506
2.14648
1.90799
1.82301
3.29254
1.83757
2.80828
4.94071
0.0959941
0.101776
0.0893549
0.0931109
0.083899
0.0852527
0.0871896
0.084542
0.0849121
0.0854575
0.0855411
0.0866588
0.0866524
0.0947541
0.0953831
0.0931135
0.0938997
0.0913909
0.092277
0.0897607
0.0908069
0.0882038
0.0892991
0.0879204
0.10093
0.100875
0.100874
0.100672
0.0982254
0.0990549
0.0987759
0.100148
0.0965681
0.0972837
0.0949501
0.095669
0.102736
0.102124
0.104913
0.10395
0.109269
0.107567
0.110351
0.109458
0.106661
0.107701
0.110599
0.108403
0.106325
0.112139
0.107601
0.107719
0.121175
0.120571
0.139354
0.137131
0.174892
0.171386
0.232838
0.197696
0.317228
0.728414
0.261507
0.399666
1.73185
4.22615
6.44618
9.54005
9.62258
9.52673
9.79252
10.7354
10.7004
10.9963
0.709844
0.106086
0.110184
0.138235
0.181554
0.332036
3.99354
1.61562
2.42638
5.61024
4.40933
4.37391
4.83355
5.62517
6.04337
4.82459
5.30261
6.14284
6.08734
5.6131
5.18768
3.78878
3.97597
3.62143
3.63963
3.52903
3.54846
3.41327
2.9537
3.22993
3.19767
2.44872
2.638
1.98455
2.15578
1.63661
1.7571
1.4982
1.47358
0.0939338
0.0973866
0.0864661
0.0881751
0.0909572
0.0862999
0.0877659
0.0870143
0.0874333
0.0878722
0.0879421
0.093334
0.0942507
0.0916772
0.0929246
0.0903375
0.0914923
0.0890376
0.0902305
0.0890409
0.101334
0.0999625
0.100115
0.100505
0.0973036
0.0981382
0.099836
0.0982541
0.0957118
0.0966617
0.0943775
0.0951852
0.105274
0.104021
0.104051
0.107983
0.106117
0.114916
0.114243
0.113483
0.115823
0.1224
0.119662
0.120116
0.117296
0.116225
0.11235
0.110095
0.120127
0.11674
0.123324
0.146999
0.136997
0.21651
0.21702
0.170446
0.202918
0.311411
0.314226
1.00466
2.03211
0.89612
3.80796
5.77468
7.66473
10.3473
11.7321
11.5413
11.4737
1.49596
2.00916
0.100011
0.539271
1.02729
0.107989
0.112334
0.11988
0.153839
0.195525
0.31632
3.90103
3.15451
5.5789
5.13474
3.91076
4.27553
5.87288
5.97449
4.28932
4.80374
5.75765
5.58943
4.93939
3.37364
3.5562
2.95522
3.10187
3.11385
2.9644
2.52392
2.658
2.09079
2.27474
1.75614
1.89736
1.43175
1.60795
0.0965855
0.089083
0.0922268
0.0943552
0.0946848
0.0884548
0.0900432
0.0886781
0.0895384
0.0893461
0.089605
0.0927244
0.0938908
0.0916055
0.0925775
0.0904046
0.0914576
0.0903344
0.0943906
0.100275
0.100001
0.101445
0.0992532
0.0981084
0.097025
0.101701
0.0971243
0.0962067
0.0961251
0.105108
0.103395
0.10693
0.109556
0.109696
0.114802
0.113545
0.123163
0.125325
0.128342
0.127272
0.140635
0.137735
0.135551