/*--------------------------------*- C++ -*----------------------------------*\
  =========                 |
  \\      /  F ield         | OpenFOAM: The Open Source CFD Toolbox
   \\    /   O peration     | Website:  https://openfoam.org
    \\  /    A nd           | Version:  8
     \\/     M anipulation  |
\*---------------------------------------------------------------------------*/
FoamFile
{
    version     2.0;
    format      ascii;
    class       volScalarField;
    location    "8000";
    object      nut;
}
// * * * * * * * * * * * * * * * * * * * * * * * * * * * * * * * * * * * * * //

dimensions      [0 2 -1 0 0 0 0];

internalField   nonuniform List<scalar> 
4109
(
0.000666445
0.000661356
0.000658656
0.000666462
0.000669038
0.000677617
0.000672487
0.000677321
0.000674981
0.000656864
0.000666939
0.000678481
0.000668145
0.000671038
0.000676852
0.000677668
0.000666076
0.000673687
0.000679237
0.000675709
0.000660669
0.000678521
0.000673858
0.000678056
0.000673712
0.000668213
0.000656411
0.00067265
0.0006776
0.000681368
0.000677363
0.000676876
0.000668043
0.000671252
0.000677458
0.000682471
0.000673898
0.000667042
0.00066703
0.000669716
0.000667315
0.00066276
0.00067391
0.000681489
0.00067813
0.00148535
0.000825092
0.000677817
0.000677445
0.00066331
0.000673126
0.000677462
0.00067697
0.00067274
0.00067589
0.000660749
0.000660763
0.000678144
0.000676464
0.000669855
0.000675287
0.00196309
0.000684654
0.000680089
0.000679315
0.000728802
0.00123458
0.000678695
0.00067359
0.00066049
0.000671605
0.000678938
0.000689437
0.000677357
0.000679782
0.000673481
0.000670855
0.000667199
0.000647973
0.0006749
0.000679431
0.000679821
0.000675744
0.000668641
0.000728588
0.000738892
0.00152751
0.0019307
0.00194715
0.000684497
0.000685496
0.000680571
0.000680242
0.000680476
0.000705343
0.000942097
0.000676895
0.000662635
0.00069215
0.000686003
0.000682332
0.000686538
0.000692451
0.000684845
0.000673052
0.000676244
0.000674583
0.000666755
0.000657386
0.000678738
0.000652988
0.000680749
0.000680676
0.000677018
0.000670677
0.00209758
0.000826737
0.000989586
0.00126784
0.0019703
0.00201089
0.000670768
0.000687795
0.000689214
0.000682885
0.000682037
0.000681565
0.000677128
0.000938061
0.000656921
0.000664559
0.000692982
0.000689521
0.000694141
0.000692902
0.000681225
0.000689443
0.000676554
0.000673591
0.000671215
0.000659947
0.000677666
0.000681999
0.000681522
0.000682121
0.000678234
0.000671147
0.00175768
0.00102456
0.0019468
0.0013126
0.00201101
0.000803238
0.000690524
0.000688853
0.000683249
0.000682937
0.000682981
0.000680575
0.000666382
0.000818251
0.000662206
0.000694228
0.000690487
0.000696296
0.000694303
0.000695497
0.000696317
0.000680837
0.000679217
0.000677029
0.000671249
0.000655542
0.000679947
0.000674298
0.000683527
0.000683204
0.000678955
0.000673488
0.00118935
0.00227755
0.00121434
0.00194105
0.00199547
0.000752031
0.000685814
0.000686142
0.000684841
0.000682804
0.000684483
0.000669492
0.000860235
0.000668452
0.000688896
0.000689207
0.000697155
0.000692024
0.000697555
0.000700321
0.000691743
0.000685022
0.000679229
0.000676841
0.000673358
0.000662567
0.00068258
0.000676111
0.000684293
0.000684253
0.000681523
0.000673602
0.00116423
0.00214456
0.0019814
0.00117192
0.0020284
0.000746539
0.000685986
0.00068805
0.000685587
0.00067176
0.00085819
0.000650404
0.000689096
0.000691109
0.000692438
0.000692301
0.000695298
0.000700714
0.000698417
0.000702046
0.00068664
0.000682456
0.000679888
0.00067492
0.000659736
0.000685243
0.000672359
0.00068558
0.000685896
0.000682371
0.000683522
0.00067645
0.00109747
0.0021654
0.00120726
0.00196821
0.00201419
0.000728875
0.000688602
0.00068876
0.000679127
0.000857634
0.000654014
0.000692172
0.00069161
0.000694056
0.000695804
0.000695597
0.000695854
0.000701318
0.00070361
0.000696693
0.000693042
0.000682281
0.000678432
0.000666244
0.000683503
0.000688412
0.000674525
0.000687145
0.000685066
0.000676339
0.000685539
0.0021844
0.00104702
0.00198895
0.00118672
0.00204008
0.000724832
0.000782843
0.000674754
0.000681233
0.000851186
0.000657703
0.000692815
0.000689729
0.000694589
0.000698663
0.00069919
0.00069712
0.000698764
0.000704659
0.000703081
0.000707616
0.000698337
0.000692275
0.000662489
0.000680368
0.00067503
0.000684966
0.000685328
0.000692599
0.000673947
0.000690215
0.00067952
0.000687188
0.0010164
0.00217053
0.00196067
0.00114795
0.00201508
0.000713152
0.000754227
0.000791965
0.000796536
0.000776138
0.000781047
0.000789428
0.000933997
0.000658723
0.000630796
0.000676576
0.000661311
0.000688116
0.00069437
0.000701234
0.000696719
0.000699048
0.000710218
0.000699522
0.000705478
0.000710252
0.000707384
0.000699009
0.000706458
0.000701032
0.0006733
0.000677395
0.000686289
0.000688451
0.000679285
0.000694708
0.000677205
0.00069102
0.000689165
0.000985461
0.00223398
0.001962
0.000704489
0.000781649
0.000845627
0.000776562
0.000788894
0.000787184
0.000805403
0.000707786
0.000723057
0.000731182
0.000762507
0.000766352
0.000739405
0.000774973
0.000783626
0.00147069
0.000615521
0.000601807
0.000642291
0.000694823
0.000712885
0.000697959
0.000699966
0.000702226
0.000700738
0.000709239
0.000702444
0.000709218
0.000715881
0.00071441
0.000708488
0.000719718
0.000730565
0.000729091
0.000666378
0.000682995
0.000689835
0.00068867
0.000682666
0.000690363
0.000696156
0.000674245
0.000694434
0.000954643
0.00236962
0.000812917
0.000817778
0.000783554
0.000782797
0.000801207
0.000722358
0.000710015
0.000739573
0.00072885
0.00073474
0.000743961
0.000750938
0.00078008
0.000773021
0.000771031
0.00251375
0.00108287
0.000550193
0.000617125
0.00068517
0.000713753
0.000713381
0.000700474
0.00070414
0.00070036
0.000702779
0.00070872
0.00070347
0.000718359
0.000718383
0.000723985
0.000723503
0.000728303
0.000726314
0.000678459
0.00068522
0.000693822
0.000693995
0.000691274
0.000682441
0.00069246
0.000696407
0.000699832
0.000700014
0.000676443
0.000981808
0.000792404
0.000845205
0.000813598
0.000783767
0.000789003
0.000800714
0.000729181
0.000719264
0.000725845
0.00073684
0.000740067
0.000740451
0.000729982
0.000732529
0.000734725
0.000755152
0.000775065
0.000770398
0.000767089
0.00240615
0.00188734
0.000629219
0.000630123
0.00068274
0.000713236
0.00071153
0.000699832
0.000703761
0.000705579
0.000704536
0.000706444
0.000716621
0.000717352
0.00072241
0.000722517
0.000722847
0.000726497
0.000672547
0.000695166
0.000691413
0.000696601
0.000697503
0.000685974
0.000685735
0.000693737
0.000697295
0.000689702
0.00150553
0.00177871
0.000703747
0.000651933
0.000816201
0.0008158
0.000834058
0.000843411
0.000818474
0.000779392
0.000787528
0.000804596
0.000732342
0.000729804
0.000734656
0.00074018
0.000749291
0.000738791
0.000754095
0.000735516
0.000741201
0.000764273
0.000759209
0.000770821
0.000774489
0.00278683
0.00217903
0.00237022
0.000591826
0.000604175
0.000676086
0.000707724
0.000710786
0.000703362
0.000708562
0.00070566
0.000706809
0.000712341
0.000715506
0.000717361
0.000720665
0.000723511
0.000728441
0.000729593
0.000686519
0.000689664
0.000704266
0.000697061
0.000696095
0.000696621
0.000699746
0.000705148
0.000689768
0.000692915
0.000650507
0.000609067
0.000833277
0.000811154
0.000822821
0.000772177
0.000753121
0.000853262
0.000810039
0.000783689
0.000786126
0.000799478
0.000735317
0.000733734
0.000732548
0.000762816
0.000744741
0.000749484
0.000739535
0.000741817
0.000760119
0.000755396
0.000767055
0.000773012
0.000721532
0.00284941
0.00248748
0.00250269
0.000636724
0.000600543
0.000674857
0.000708724
0.000711171
0.000707906
0.00070072
0.000709741
0.000713253
0.000715882
0.000718168
0.000720999
0.000724378
0.000726662
0.000730682
0.000732655
0.000677461
0.000699524
0.000701349
0.00070218
0.000701214
0.000703284
0.000702607
0.000701552
0.000690969
0.000698248
0.000698528
0.000682167
0.000833755
0.000762114
0.000775929
0.000825512
0.000768338
0.000858778
0.000806156
0.000785537
0.000791953
0.000800142
0.000808147
0.000738785
0.000736161
0.000736588
0.000732746
0.000742885
0.000752132
0.000748784
0.000759373
0.000764204
0.00077204
0.000772974
0.000699626
0.00290531
0.00257998
0.00264781
0.000611325
0.000589831
0.00066816
0.000714169
0.000709995
0.000712504
0.000707571
0.000714458
0.000718745
0.000723482
0.000719201
0.000724661
0.000729711
0.000729241
0.000734192
0.000737183
0.000690587
0.000694301
0.00070938
0.000707812
0.000704253
0.000705806
0.000709926
0.000693736
0.000695716
0.000699229
0.000654959
0.00082534
0.000807001
0.000754352
0.000745641
0.000768303
0.000808853
0.000760515
0.000818821
0.00084857
0.000783231
0.000794061
0.00079613
0.000809212
0.000741998
0.000737883
0.0007391
0.000738973
0.000738732
0.00074731
0.000747499
0.000745283
0.000756144
0.000765072
0.000775426
0.00077977
0.00079686
0.00293702
0.00277179
0.00267178
0.00064106
0.000582064
0.000682456
0.000715728
0.000712703
0.0007052
0.000715773
0.000719129
0.000722531
0.000720531
0.00072668
0.000731712
0.000734372
0.000735651
0.00073837
0.000685477
0.000706242
0.000708059
0.000694949
0.000708175
0.000706523
0.000708097
0.000704474
0.000699432
0.000700348
0.00064995
0.000845329
0.000821365
0.000823159
0.000792267
0.000736472
0.000737744
0.000751785
0.000773107
0.000801711
0.000773511
0.000735648
0.000829516
0.000837311
0.000849638
0.000782745
0.000796472
0.000798009
0.000798372
0.000743636
0.000740384
0.000737116
0.000738381
0.000747728
0.000753438
0.000746811
0.000783374
0.000761238
0.000761566
0.000773242
0.000720918
0.00298109
0.00287775
0.00282532
0.000682765
0.000615609
0.000595008
0.00072116
0.000712213
0.00072264
0.000718704
0.000725862
0.000726007
0.000723091
0.000732464
0.000734356
0.000735734
0.000700273
0.000704206
0.000713071
0.000697669
0.000700478
0.000712303
0.000707509
0.000709267
0.000715088
0.000700187
0.000645264
0.000694303
0.000705103
0.00082477
0.000810524
0.000811036
0.00078288
0.000733993
0.00075163
0.000771076
0.000765716
0.000792585
0.000723135
0.00072049
0.000719677
0.000711725
0.000703352
0.000833502
0.000814181
0.000830033
0.000815876
0.000786427
0.000785195
0.000787096
0.000784132
0.000745601
0.000741333
0.000743368
0.000755038
0.00075122
0.000749793
0.000743089
0.000772467
0.000772577
0.00076588
0.000769388
0.000862017
0.00308051
0.00301801
0.00266133
0.000601084
0.000591184
0.000716499
0.000668321
0.000733345
0.000721366
0.000731004
0.000734063
0.000737602
0.000699794
0.000716519
0.000699382
0.000702578
0.000708991
0.000713352
0.000710726
0.000712195
0.000647418
0.000700358
0.000704606
0.000705744
0.000704582
0.000810358
0.000803001
0.000801587
0.000773699
0.000731446
0.000758601
0.000788226
0.000758369
0.000739198
0.000722787
0.000722326
0.000714225
0.000711871
0.000701136
0.000712633
0.000819152
0.000851431
0.000813152
0.000820597
0.000772633
0.000775945
0.000779164
0.000764174
0.000744142
0.000743613
0.00075278
0.000747537
0.000753148
0.000748821
0.000747917
0.000773077
0.000774199
0.000764009
0.000600638
0.00301786
0.00303536
0.00271901
0.000582488
0.000578791
0.000739514
0.00103437
0.000729035
0.000734095
0.000737349
0.000726354
0.000701944
0.000705367
0.000719139
0.000713343
0.000717109
0.000710644
0.000668328
0.000709549
0.000715242
0.000722546
0.000798206
0.000800707
0.000795473
0.000791689
0.000765053
0.00076085
0.000779182
0.000751578
0.000743675
0.000753169
0.000736905
0.000726932
0.000734466
0.000729807
0.00072856
0.000729323
0.000780501
0.00080262
0.000785539
0.000810352
0.000764549
0.00076335
0.000772526
0.000767059
0.000786337
0.000744699
0.000759009
0.000754338
0.000753462
0.000751401
0.000747545
0.000761087
0.000763733
0.000762832
0.000651998
0.00316605
0.00311469
0.00308793
0.000521626
0.000730975
0.000624345
0.000737279
0.000739581
0.000704122
0.0007068
0.000713763
0.000716704
0.000718307
0.000715131
0.000681475
0.00070958
0.000731107
0.000706684
0.000796965
0.000794569
0.000788689
0.000778046
0.000756886
0.000774881
0.000746095
0.000767532
0.000764999
0.00075651
0.000736836
0.000740971
0.000751557
0.000743503
0.000747355
0.000811957
0.000786015
0.000803335
0.000757013
0.000755443
0.000762665
0.000778092
0.000778296
0.000754647
0.000751564
0.000747878
0.000756304
0.00075396
0.000752845
0.000541464
0.00315395
0.0045162
0.000982978
0.000747199
0.000624416
0.000742918
0.00071047
0.000723583
0.000717952
0.000724031
0.000714952
0.000687657
0.000709299
0.000711613
0.000785508
0.000782357
0.000777861
0.000770986
0.000751427
0.000740671
0.000736379
0.000731843
0.000728246
0.000711949
0.000714869
0.000724374
0.000717777
0.000721091
0.000778716
0.000794244
0.000788784
0.00075298
0.000759068
0.000774433
0.000752273
0.000774513
0.000752665
0.0007483
0.000751739
0.000750803
0.000752073
0.000756226
0.00543102
0.00515283
0.00141623
0.000765321
0.000573311
0.000718993
0.000721464
0.000716405
0.000720209
0.000692834
0.000715807
0.000728339
0.00078169
0.000783999
0.000769992
0.000762461
0.000745371
0.000741587
0.000736439
0.000733802
0.000716941
0.000721389
0.000729071
0.000722717
0.0007273
0.000768414
0.000776975
0.000780054
0.000761135
0.000763823
0.000753084
0.000769159
0.000747995
0.000747101
0.00074655
0.000749367
0.00112682
0.000978966
0.00628646
0.00682731
0.00239398
0.00122804
0.000722932
0.000720011
0.000727586
0.000725509
0.000632134
0.000724663
0.0007265
0.000766126
0.000767333
0.000764501
0.000760206
0.000752361
0.000751606
0.000743994
0.000733394
0.000730727
0.000744563
0.000738681
0.000737047
0.000768885
0.000764093
0.000769744
0.000759114
0.000750433
0.000753619
0.000760966
0.000871403
0.000966669
0.00155502
0.00833483
0.00824048
0.00135776
0.00103471
0.0019087
0.000724319
0.000722462
0.000726675
0.00073479
0.000564373
0.000728245
0.000724397
0.000769562
0.000767398
0.000759356
0.000754433
0.000749872
0.000746371
0.000731888
0.00073398
0.000742773
0.000739921
0.00073696
0.000766272
0.000765846
0.000757014
0.000754801
0.00075496
0.000758227
0.000575851
0.000754574
0.000793175
0.00245508
0.00119624
0.000836331
0.00188696
0.00179721
0.000728775
0.00072507
0.000749363
0.000536185
0.000730771
0.000726194
0.000755613
0.000757067
0.000754632
0.000749544
0.000747144
0.000729115
0.000736721
0.000742528
0.000741542
0.000736525
0.000765151
0.000762563
0.000749424
0.000763756
0.000750748
0.000752232
0.000473385
0.000481679
0.000625456
0.00061267
0.000561964
0.00184242
0.000996375
0.000638722
0.0016192
0.00166802
0.000729453
0.000736934
0.000767608
0.000732457
0.000731861
0.000731434
0.000756101
0.000749956
0.000748684
0.000743727
0.000737028
0.000732882
0.000743406
0.000739524
0.000737735
0.000760134
0.000748737
0.000759778
0.000747322
0.000747856
0.000374489
0.000387148
0.000487785
0.000432028
0.00163657
0.000406906
0.00191215
0.00153345
0.000776406
0.000447338
0.00133287
0.00152391
0.000725581
0.00074539
0.000731099
0.000733571
0.000735267
0.000750786
0.000749782
0.000749193
0.000745045
0.000737959
0.000737593
0.000743939
0.000740862
0.000739957
0.000755116
0.000745847
0.000742821
0.00138428
0.000287913
0.000294409
0.000346598
0.000258387
0.00141412
0.000280575
0.00197255
0.00159875
0.0012211
0.000550721
0.000267535
0.00103025
0.00136442
0.000739045
0.000728992
0.000735017
0.000731125
0.000740008
0.000742341
0.00074543
0.000743549
0.00073633
0.000737025
0.000743287
0.000740249
0.000740382
0.00139573
0.00115198
0.000214221
0.000204347
0.000207656
0.000103096
0.0011665
0.000183932
0.00202832
0.0016468
0.00128527
0.000922182
0.000332095
0.00010873
0.000728001
0.00118285
0.00163204
0.001133
0.000938201
0.000150876
0.000119924
8.14e-05
7.24903e-06
0.000908562
0.0001097
0.00223948
0.00169693
0.00132342
0.000980192
0.000643984
0.000138622
8.72143e-06
0.000443186
0.000977894
0.00188077
0.00130916
0.000914127
0.00073404
9.27014e-05
4.46587e-05
4.63576e-06
0.000653253
5.76408e-05
0.00125549
0.00194702
0.00136936
0.00100909
0.000691577
0.000393016
1.45472e-05
0.000197847
0.00249226
0.00145362
0.00102808
0.00072101
0.000534422
3.76968e-05
1.521e-06
0.000408123
3.1222e-05
0.00113316
0.000963809
0.00160762
0.00105067
0.000712217
0.000426917
0.000178163
3.37975e-05
0.00404965
0.00185557
0.00110055
0.000790057
0.000537635
0.000341797
1.08876e-06
0.000186944
0.00141727
0.000947366
0.000716746
0.00124651
0.000746565
0.0004406
0.000196627
2.72863e-05
0.0041208
0.00340687
0.00129403
0.000813062
0.000584921
0.000356957
0.000162506
2.63092e-05
0.00183978
0.00121069
0.000772492
0.000507393
0.000886769
0.000465245
0.000204841
3.2102e-05
0.00546765
0.0033361
0.00264564
0.000831206
0.000579132
0.000398119
0.000181857
2.42981e-05
0.00217777
0.00146715
0.0010006
0.000604814
0.000331503
0.000550668
0.000218699
3.50769e-05
0.00451389
0.00469127
0.00255937
0.0018286
0.000482821
0.00039694
0.000221602
3.48175e-05
0.00236271
0.00172918
0.0011209
0.000785308
0.00044164
0.00018803
0.000260356
3.95314e-05
0.00400872
0.00376516
0.00382583
0.00183565
0.00107076
0.000252618
0.000248257
6.20139e-05
0.00238555
0.00187165
0.00131701
0.000808107
0.000560778
0.000285423
7.84893e-05
5.33451e-05
0.00382055
0.0033776
0.00302167
0.00292994
0.00121968
0.00047669
0.000133457
9.56419e-05
0.00222803
0.00189041
0.00142248
0.000947985
0.000533791
0.000326954
0.000130717
1.52251e-05
0.00377129
0.00320562
0.00271194
0.00229293
0.0020514
0.000699973
0.000144716
9.40146e-05
0.00186879
0.00177234
0.00143751
0.00102199
0.000626262
0.00030168
0.00012439
1.38423e-05
0.00392805
0.00316357
0.00257089
0.00205845
0.00162421
0.00122311
0.000303477
4.00588e-05
0.00142727
0.0014903
0.00135218
0.00103349
0.000674083
0.000354743
0.000117235
9.38758e-06
0.00443694
0.00327256
0.00253558
0.00195281
0.00144421
0.00104262
0.000417377
9.0614e-05
0.00109242
0.00121607
0.00113908
0.000975075
0.000682254
0.000381304
0.000139639
9.39381e-06
0.00518686
0.00375491
0.00260514
0.00192471
0.0013731
0.000891942
0.00055657
3.59392e-05
0.00125121
0.000913524
0.00100252
0.000821993
0.000645286
0.000386379
0.000150519
1.3172e-05
0.00427775
0.00434152
0.00309309
0.00196152
0.00135198
0.000853254
0.000434107
0.000182474
0.00220898
0.00096177
0.000746221
0.000784765
0.000543525
0.000366311
0.000152859
1.51726e-05
0.00417793
0.00355104
0.00333878
0.00245335
0.00136497
0.000838382
0.000419399
0.000123268
0.00202486
0.00191181
0.00071301
0.000585211
0.000558084
0.000307655
0.000144947
1.56556e-05
0.00274419
0.00365343
0.00279749
0.00226145
0.00185575
0.000838508
0.000410173
0.000120339
0.00194535
0.00168964
0.00157267
0.000503545
0.000427463
0.000324388
0.000120233
1.4248e-05
0.00195285
0.00215503
0.00306809
0.00206
0.00129461
0.00126519
0.000406606
0.000115649
0.00187621
0.00161793
0.00135865
0.00121491
0.000328595
0.000275844
0.000123401
1.00563e-05
0.0016838
0.00153587
0.00163177
0.00243951
0.00139089
0.000593991
0.000605521
0.000112954
0.00181155
0.00156264
0.00129531
0.00103896
0.000861628
0.00018627
0.000125358
9.38795e-06
0.00141402
0.00135451
0.00118996
0.00118064
0.00181529
0.000851392
0.000207729
0.000129789
0.00191328
0.0018685
0.0015015
0.00125159
0.000984461
0.00073605
0.000533212
7.70922e-05
1.26003e-05
0.00139084
0.00115205
0.00106743
0.000904741
0.000810427
0.00122628
0.000467899
5.04876e-05
0.00137
0.00179335
0.00159695
0.00119073
0.000951508
0.000692414
0.000457026
0.000249952
1.39557e-05
0.00161561
0.00115679
0.000931498
0.000825053
0.000658976
0.000509056
0.000703122
0.000229323
0.000565641
0.00120783
0.00119357
0.00165773
0.00131038
0.0008962
0.000669286
0.000426025
0.000213202
4.94561e-05
0.00140813
0.000941695
0.000734335
0.00061282
0.000453076
0.000283657
0.000262763
0.00040795
0.000501492
0.00116317
0.0010165
0.000985535
0.00150877
0.00100956
0.000624274
0.000411388
0.000196407
3.72613e-05
0.000630543
0.000940892
0.00116933
0.000736687
0.000545855
0.000417523
0.000276216
0.000121617
0.000279809
0.000399683
0.000994811
0.000819416
0.000762998
0.00134487
0.000710654
0.000380251
0.000188088
3.21268e-05
0.000523493
0.000815877
0.000914676
0.000536532
0.000361877
0.000232612
9.74513e-05
0.000183306
0.000308849
0.000814209
0.000623475
0.000537602
0.00116069
0.000430377
0.000171698
2.93575e-05
0.000418991
0.000677294
0.000659927
0.00034326
0.000184331
6.58313e-05
0.000109695
0.000231119
0.000627601
0.000434772
0.000321851
0.00095384
0.000189813
2.53544e-05
0.000317721
0.000528765
0.000413499
0.000163471
3.61146e-05
5.94193e-05
0.000163939
0.000441698
0.000258531
0.000132435
3.08781e-05
0.000220526
0.000376414
0.000190301
2.47079e-05
3.22351e-05
0.000101544
0.000263592
0.000103694
1.30157e-05
0.000130273
0.00022676
2.73924e-05
4.18683e-05
0.000105295
7.69141e-06
4.96181e-05
9.05199e-05
1.35481e-06
7.52765e-06
1.96998e-06
5.8564e-06
0.000739585
0.000739076
0.000740665
0.000740918
0.000741787
0.000740965
0.000741165
0.000742202
0.00074003
0.000738883
0.000740168
0.000740606
0.000741441
0.0007414
0.000742079
0.000744858
0.000758723
0.000764129
0.000768478
0.000778212
0.000781934
0.000744003
0.000747464
0.000741936
0.000743742
0.000742498
0.0007407
0.000742165
0.000743588
0.000741021
0.000794414
0.000798704
0.000740019
0.000740085
0.000740986
0.000741199
0.000742321
0.000742132
0.000745553
0.000748116
0.00075127
0.000753321
0.000756768
0.000764318
0.000771512
0.000775657
0.000789731
0.000793979
0.000819195
0.000820965
0.000750108
0.000753166
0.000755798
0.000759576
0.000764059
0.000771554
0.000780654
0.000743746
0.000747903
0.000741631
0.000742641
0.000742649
0.000740895
0.000743438
0.000744612
0.000742379
0.000778202
0.000786189
0.000840146
0.000849054
0.000808809
0.000808816
0.000833514
0.000739873
0.000740626
0.000741241
0.00074246
0.000743908
0.000745476
0.000749462
0.000751024
0.000757955
0.000759938
0.000764819
0.000770441
0.000786953
0.000792765
0.00080832
0.00080891
0.000831018
0.000834136
0.000860006
0.000869183
0.000906081
0.000899326
0.000922641
0.000747039
0.000751969
0.000753491
0.000758217
0.000763789
0.000743761
0.000746849
0.000741636
0.000741949
0.00074359
0.000741543
0.000744497
0.000744469
0.000744742
0.000763728
0.000780119
0.000781044
0.000803525
0.000811559
0.000905686
0.000853159
0.000892383
0.000835527
0.000850373
0.000742863
0.000743139
0.000745387
0.000746151
0.000750095
0.000750584
0.000757395
0.0007562
0.000766393
0.000762565
0.000776447
0.00078024
0.000818074
0.000814583
0.000830224
0.000834693
0.000857301
0.000866061
0.000885796
0.000896705
0.000950291
0.000951851
0.000999521
0.00101863
0.000982324
0.00102494
0.00103144
0.00122974
0.000746522
0.000751765
0.000753087
0.000756969
0.00074594
0.000745379
0.000743833
0.000746528
0.000742157
0.00074197
0.000744432
0.00074375
0.000741998
0.000746274
0.000745147
0.000760911
0.00077227
0.000780786
0.0015266
0.00135154
0.00149892
0.00080065
0.000803324
0.000830615
0.000844608
0.000906774
0.000919269
0.00106687
0.000971876
0.000861417
0.000909938
0.000750657
0.00074823
0.000754395
0.000751
0.000759406
0.000754619
0.000764497
0.000761315
0.000764623
0.000770146
0.000780864
0.000783698
0.000793419
0.000818668
0.000846745
0.000822581
0.000851219
0.000971703
0.000970878
0.000964439
0.00103117
0.00203084
0.00209369
0.00175553
0.00117973
0.00118028
0.00129851
0.00124852
0.00125049
0.00137667
0.00138867
0.00186889
0.0015651
0.00355212
0.00332294
0.00339958
0.00210658
0.00299634
0.0028057
0.00246299
0.00212325
0.000746578
0.000750843
0.000750457
0.000755437
0.000744147
0.000743567
0.000743952
0.000745658
0.000742593
0.000742566
0.000742171
0.000746426
0.00074544
0.00074428
0.000743668
0.000760315
0.000774071
0.000803135
0.000781831
0.000798206
0.00366308
0.0036747
0.0028444
0.00272586
0.00214674
0.00111945
0.00135876
0.00154757
0.00192681
0.000837403
0.000839394
0.000848159
0.000847204
0.000891859
0.000903071
0.000990718
0.000976202
0.00106051
0.00363297
0.00342494
0.00126145
0.00328209
0.00288468
0.00263653
0.0014838
0.0017905
0.00189216
0.00263094
0.000779672
0.000767088
0.000783399
0.000769893
0.000785918
0.000774994
0.000789247
0.000789692
0.000797745
0.000795816
0.000810564
0.000810736
0.000851553
0.000875505
0.000929857
0.00090238
0.00113685
0.00133266
0.00110106
0.00174006
0.00142797
0.00132826
0.00163048
0.00146161
0.00143844
0.00252488
0.00304875
0.00350277
0.00304469
0.00268102
0.00228342
0.00180528
0.00167116
0.00184479
0.00200624
0.00259989
0.00190726
0.00204246
0.00348485
0.00355003
0.00361251
0.00369931
0.00356999
0.00340345
0.00329241
0.0033026
0.00138572
0.00136687
0.00284726
0.00297146
0.00153366
0.00160428
0.00191155
0.00254608
0.00207283
0.00240939
0.000746574
0.000749741
0.00074912
0.000758499
0.00074321
0.000742991
0.000742975
0.000743889
0.00074519
0.000746441
0.000745197
0.000744521
0.000743516
0.00074339
0.000743107
0.000758586
0.000774346
0.000775607
0.000795071
0.000799446
0.000826383
0.000794005
0.0034974
0.00374789
0.00338246
0.0037103
0.00365087
0.00274071
0.00332353
0.00262415
0.00215567
0.000838799
0.00191746
0.00118535
0.00173381
0.00134998
0.000881269
0.000875706
0.000897733
0.000889438
0.000922415
0.00091117
0.00103315
0.00102547
0.00118192
0.00369713
0.00339314
0.00375763
0.00113345
0.00120528
0.000952168
0.00323886
0.00280143
0.00265956
0.00180233
0.00114184
0.0015786
0.000621059
0.000825791
0.00386394
0.00129139
0.000684395
0.000841596
0.00077675
0.00087493
0.000863334
0.000902085
0.000942255
0.000878219
0.000869007
0.00094338
0.000951559
0.00114233
0.00121548
0.00168999
0.00132972
0.00174663
0.00134819
0.001312
0.00176897
0.00148393
0.00160953
0.001869
0.00223718
0.00184439
0.00156236
0.00203071
0.00180996
0.00215237
0.00203271
0.00274133
0.00314666
0.00354086
0.00335251
0.00294842
0.00246915
0.00247806
0.00227093
0.00280533
0.00231841
0.00251946
0.00360703
0.00349862
0.003685
0.00355571
0.00362698
0.00333153
0.00339055
0.00287803
0.00312531
0.00303462
0.00146091
0.00162572
0.00247867
0.00263902
0.00227131
0.00215555
0.00196165
0.000757536
0.00074643
0.00074886
0.000748627
0.000743111
0.000743739
0.000744835
0.000759323
0.000745966
0.000744883
0.000744502
0.000743737
0.000743854
0.000743355
0.00074383
0.000743902
0.000746842
0.000745111
0.000744487
0.000748489
0.000748047
0.000750372
0.000772703
0.000773906
0.000776329
0.000785583
0.000841576
0.000812282
0.000809205
0.000797799
0.00381276
0.00380595
0.00354002
0.0024486
0.00335218
0.00283993
0.000871144
0.000912265
0.000926984
0.00241574
0.00142235
0.0022579
0.00154061
0.000942952
0.000925551
0.00100465
0.000987189
0.00115854
0.00116769
0.00134227
0.00376699
0.00378186
0.00357419
0.00387873
0.00392586
0.00339607
0.000839719
0.000904308
0.000674232
0.00294092
0.00271324
0.00207962
0.00150904
0.000864569
0.00909749
0.00821335
0.00217161
0.000903494
0.0074268
0.00528214
0.0013915
0.000907552
0.00114872
0.000909629
0.00107654
0.000992932
0.00112915
0.00127499
0.00124981
0.00177879
0.00180859
0.00150804
0.0022358
0.00173236
0.00194821
0.00250698
0.00247213
0.00270182
0.00222161
0.00239229
0.00258336
0.00287065
0.00222864
0.00242738
0.00264734
0.00234674
0.002733
0.00243555
0.00348769
0.00319293
0.00339252
0.00330541
0.00307367
0.00305348
0.0031868
0.00305958
0.00297694
0.0036526
0.0034941
0.00341744
0.00352629
0.00349064
0.00302806
0.00328109
0.002573
0.00277327
0.00215366
0.00228748
0.000756057
0.000753082
0.000749748
0.000756809
0.000744117
0.00074602
0.000747539
0.000754923
0.000761369
0.000745233
0.000744223
0.000744298
0.000743611
0.000744014
0.000743644
0.000744608
0.000744776
0.000748056
0.000742028
0.000747127
0.000748466
0.000751015
0.000752571
0.000770899
0.00077456
0.00078549
0.000794211
0.000861978
0.00084426
0.000836195
0.000814738
0.00317581
0.00330845
0.00384328
0.000924972
0.000944324
0.000943731
0.00103086
0.00098656
0.00233756
0.00297703
0.00165311
0.00209685
0.00137958
0.00128876
0.00169138
0.00168348
0.00149889
0.00370222
0.00391671
0.00394105
0.00374345
0.00374735
0.00351823
0.00303323
0.00276558
0.000615825
0.000704579
0.0023945
0.00188418
0.00145982
0.000788074
0.0091542
0.010308
0.00382697
0.00830511
0.010174
0.00984321
0.00550973
0.0034043
0.00942702
0.00895581
0.00456677
0.00252689
0.00352399
0.00204274
0.0029384
0.00185386
0.00252908
0.00252211
0.00203706
0.00300772
0.00261292
0.00261788
0.0025205
0.00265109
0.00315513
0.00306931
0.00311582
0.00334474
0.00306538
0.00279489
0.00323986
0.00342017
0.00288875
0.00317146
0.00338455
0.00308255
0.00338501
0.00361048
0.00345794
0.00359875
0.00346793
0.0035701
0.00344419
0.00345036
0.00347524
0.0035506
0.003542
0.00315449
0.00337493
0.00269565
0.00284739
0.00216573
0.00232796
0.000759238
0.000756839
0.000756165
0.000753958
0.000749567
0.000749967
0.000753624
0.00075954
0.000765235
0.00074698
0.000741815
0.000746837
0.000742278
0.000748299
0.000744486
0.000751187
0.000746277
0.000747607
0.000749203
0.000750654
0.000752759
0.000754039
0.000775763
0.000776735
0.000786418
0.00081676
0.000802124
0.000780766
0.000912215
0.000872395
0.000876569
0.000846331
0.000953567
0.00382974
0.003378
0.000978827
0.000931277
0.00121201
0.00111475
0.00181907
0.00214772
0.00221061
0.0021086
0.00305073
0.00257907
0.00228902
0.00248146
0.00234436
0.00394814
0.00414256
0.00377788
0.00396601
0.00323918
0.00293666
0.00237629
0.00219272
0.0018912
0.00179663
0.000607888
0.00134796
0.00767541
0.0098782
0.00229519
0.00576172
0.00967003
0.0106803
0.00857512
0.00738785
0.01071
0.0102588
0.00694943
0.00582205
0.00571921
0.00380081
0.00439589
0.00351586
0.00316385
0.00331346
0.00416151
0.00345187
0.00393295
0.00334507
0.00360647
0.00363561
0.00388303
0.00378903
0.00375848
0.00362707
0.00356731
0.00335279
0.00366442
0.003814
0.00345253
0.00361665
0.00372643
0.00359411
0.00370649
0.00358709
0.00354855
0.0035516
0.00364197
0.00363172
0.00361912
0.00326289
0.00342249
0.00276569
0.00293806
0.00222338
0.00239941
0.00078796
0.00066598
0.000759282
0.000760242
0.000759202
0.00075762
0.000756803
0.000754809
0.000756659
0.000757995
0.000763664
0.000763777
0.00078033
0.000747351
0.000746569
0.000748213
0.000748296
0.000751835
0.000749116
0.00074998
0.000751789
0.000753124
0.00075399
0.000755736
0.000775582
0.000799525
0.000803308
0.000850178
0.000792872
0.00080018
0.000951402
0.000894886
0.000906382
0.000850315
0.0010113
0.00115139
0.000905652
0.00389727
0.00373724
0.00188508
0.00167491
0.00240103
0.00351594
0.00316744
0.00285564
0.00306519
0.00341742
0.00363418
0.0030536
0.00384602
0.0044656
0.00305261
0.00354154
0.0025482
0.00225126
0.00181508
0.00166867
0.000596272
0.000905823
0.0059747
0.00920828
0.00156024
0.00343683
0.0087301