/*--------------------------------*- C++ -*----------------------------------*\
  =========                 |
  \\      /  F ield         | OpenFOAM: The Open Source CFD Toolbox
   \\    /   O peration     | Website:  https://openfoam.org
    \\  /    A nd           | Version:  8
     \\/     M anipulation  |
\*---------------------------------------------------------------------------*/
FoamFile
{
    version     2.0;
    format      ascii;
    class       volVectorField;
    location    "8000";
    object      U;
}
// * * * * * * * * * * * * * * * * * * * * * * * * * * * * * * * * * * * * * //

dimensions      [0 1 -1 0 0 0 0];

internalField   nonuniform List<vector> 
4109
(
(10.1197 0.000522718 0)
(10.1223 0.000552638 3.86606e-21)
(10.124 0.00250466 0)
(10.1218 -0.000216747 -8.33024e-21)
(10.1241 0.00150627 4.00687e-22)
(10.1269 0.00237187 6.67252e-23)
(10.1278 0.00251387 -2.46048e-22)
(10.1334 0.00401697 0)
(10.1288 0.00239039 0)
(10.123 0.000387814 -2.8657e-21)
(10.125 0.00129238 3.48388e-21)
(10.1338 0.00314529 1.53491e-21)
(10.1363 0.00797831 2.24784e-21)
(10.1368 0.00429695 -1.08973e-22)
(10.1346 0.00331314 2.37349e-21)
(10.13 0.00222358 -8.93436e-22)
(10.1243 0.000617802 5.50895e-22)
(10.1267 0.00160402 6.44638e-23)
(10.1356 0.00323651 0)
(10.1404 0.00369857 -3.23155e-21)
(10.159 0.00816499 1.84878e-21)
(10.1427 0.00842511 -5.07548e-21)
(10.1466 0.0060131 -5.72891e-22)
(10.1312 0.0022933 -2.23677e-21)
(10.1285 0.00175639 9.11719e-21)
(10.1256 0.000843575 3.0846e-21)
(10.1329 -0.00211919 0)
(10.1362 -0.00228132 9.07266e-22)
(10.1404 -0.0021711 -6.5819e-23)
(10.136 0.00326024 0)
(10.1419 0.00323801 0)
(10.1465 0.00464765 3.91953e-21)
(10.2209 -2.11376e-05 -1.01531e-21)
(10.1507 0.00705257 -7.10658e-21)
(10.1489 0.00602155 0)
(10.132 0.00233967 -1.60398e-22)
(10.1279 0.00153839 -9.05703e-21)
(10.1266 0.000754429 -5.02409e-21)
(10.1328 -0.0021674 -1.45057e-21)
(10.1249 -0.00161535 0)
(10.1421 -0.00303733 -1.37685e-22)
(10.1392 -0.00333341 4.96695e-22)
(10.1418 -0.00893139 -1.48059e-22)
(10.1365 0.00334377 -2.26486e-21)
(10.1421 0.00323794 0)
(9.48072 0.0260907 7.08079e-22)
(10.135 -0.000371393 3.81127e-22)
(10.1489 0.00466804 -1.40854e-22)
(10.1496 0.00403295 6.76609e-22)
(10.2167 -0.00105404 4.6295e-21)
(10.1535 0.00534074 4.2608e-21)
(10.1308 0.00203039 -1.32218e-22)
(10.1291 0.00184986 -8.79215e-21)
(10.1281 0.00102588 1.97787e-21)
(10.1329 -0.00250121 -9.4782e-22)
(10.1266 -0.00186328 0)
(10.119 -0.000356044 0)
(10.1416 -0.00527501 1.169e-22)
(10.143 -0.00417244 1.57954e-22)
(10.1389 -0.00347562 0)
(10.2401 -0.00276621 -1.44655e-22)
(8.88598 0.0142799 0)
(10.1362 0.00330506 -7.73267e-21)
(10.1427 0.00324028 0)
(10.1487 0.00439798 6.05533e-22)
(10.2461 -0.000862392 -3.8681e-22)
(9.74635 0.0280903 1.58273e-20)
(10.15 0.00375568 0)
(10.1508 0.0063192 -9.5732e-22)
(10.2301 -0.000416836 -5.83941e-22)
(10.1298 0.00127571 2.64781e-21)
(10.1309 0.00226671 5.86648e-21)
(10.1355 0.00387933 0)
(10.1318 0.00141113 1.1955e-20)
(10.1331 0.00226682 -1.78427e-20)
(10.1339 -0.00284551 9.55947e-22)
(10.1284 -0.00195303 0)
(10.1266 -0.00176265 0)
(10.1205 -0.000465238 0)
(10.2207 0.00675929 1.69738e-22)
(10.1468 -0.00464601 8.12319e-22)
(10.1416 -0.00486202 -7.41847e-22)
(10.1451 -0.00360814 8.87422e-23)
(10.1395 -0.00389633 0)
(10.3543 0.0186115 1.2093e-21)
(10.258 4.57807e-06 0)
(9.37364 -0.0429389 0)
(9.21595 0.0310567 -3.08721e-20)
(8.84226 0.0202398 -1.05316e-21)
(10.1348 0.00273344 3.02084e-21)
(10.1371 0.00329125 7.73582e-21)
(10.1432 0.00333706 0)
(10.1492 0.00449704 -3.1755e-22)
(10.1506 0.00351064 -1.97835e-22)
(10.2875 -0.00495909 0)
(9.9927 0.0122726 0)
(10.1483 0.00594501 0)
(10.2206 0.000547498 3.09523e-22)
(10.1371 0.0039441 6.29344e-22)
(10.1342 0.00322064 -1.17888e-20)
(10.1318 0.00248849 1.34256e-20)
(10.1365 0.00384109 8.46899e-21)
(10.1383 0.00452197 5.39501e-21)
(10.1346 0.00274025 6.2814e-21)
(10.1341 0.0012286 2.45296e-21)
(10.1347 -0.00332976 3.99741e-22)
(10.1305 -0.00263522 3.53737e-22)
(10.1263 -0.00154131 0)
(10.1212 -0.000621769 2.85599e-21)
(10.2091 0.00182195 1.57357e-22)
(10.3295 0.00916201 0)
(10.1451 -0.00537148 -3.22593e-22)
(10.1455 -0.00428708 -3.18965e-23)
(10.1454 -0.00403103 0)
(10.1399 -0.0042076 0)
(9.01874 -0.038026 -1.43722e-20)
(10.1706 -0.0132134 -1.07913e-21)
(9.90987 -0.0362105 1.72629e-20)
(9.56751 0.0395103 -7.2147e-21)
(9.04842 0.0114386 1.10081e-20)
(8.75676 -0.00320109 8.62504e-21)
(10.2989 0.00205962 1.37775e-22)
(10.1362 0.00330896 -1.38056e-20)
(10.1394 0.00391028 -2.38853e-21)
(10.1441 0.00368229 -7.63685e-22)
(10.1495 0.00479109 0)
(10.1514 0.00386949 6.31097e-22)
(10.1472 0.00611248 -2.01402e-21)
(10.0767 0.00439784 3.3872e-21)
(10.3091 -0.00162269 0)
(10.2078 0.000910102 2.35512e-22)
(10.1403 0.00521606 6.98213e-21)
(10.1373 0.00405912 -4.3854e-21)
(10.1387 0.00472629 -8.28356e-21)
(10.1409 0.00582651 5.13083e-22)
(10.1372 0.00155832 0)
(10.1375 0.00379615 -4.98028e-21)
(10.1355 -0.00386351 -7.81841e-22)
(10.1307 -0.00281476 0)
(10.1268 -0.00171291 1.07654e-21)
(10.1225 -0.000758032 -2.85565e-21)
(10.2107 -0.0012664 -2.45918e-23)
(10.3261 -0.00306334 0)
(10.1429 -0.00663449 0)
(10.1466 -0.0044396 -3.04395e-22)
(10.1457 -0.00420825 1.52008e-22)
(10.1404 -0.0046973 0)
(9.13902 -0.0346383 -8.23416e-21)
(9.85908 -0.0391251 5.30482e-22)
(9.08636 0.00957786 0)
(9.64725 0.0186165 -3.79705e-21)
(8.76039 0.0225238 0)
(10.2683 -0.00130413 -1.28643e-22)
(10.1399 0.00437856 1.10064e-20)
(10.1395 0.00391209 2.38835e-21)
(10.145 0.00417926 7.26109e-22)
(10.1502 0.0056201 2.35055e-21)
(10.1514 0.00440448 1.10429e-21)
(10.1467 0.00696254 1.23337e-21)
(10.2021 0.00307921 -3.89522e-23)
(10.1213 0.00211399 -3.43361e-24)
(10.3213 -0.00265787 -2.35337e-22)
(10.1441 0.00619282 1.9603e-21)
(10.1401 0.0045174 0)
(10.1416 0.00626804 -3.18559e-22)
(10.1449 0.00725703 -1.69144e-21)
(10.1426 0.00639852 -2.10535e-22)
(10.141 0.00538488 0)
(10.1408 0.0017788 0)
(10.1365 -0.00457241 2.9977e-22)
(10.132 -0.00341541 1.16604e-22)
(10.1281 -0.00208726 -2.32329e-21)
(10.1232 -0.000647476 -4.80926e-22)
(10.2068 -0.00458558 -2.07716e-23)
(10.3266 -0.00414095 0)
(10.1409 -0.00767816 6.23564e-22)
(10.1484 -0.00455638 -1.49091e-22)
(10.1457 -0.00489189 -6.04683e-22)
(10.1414 -0.00561402 -3.68994e-22)
(9.77439 -0.0296477 -5.53703e-22)
(8.8828 -0.0128498 0)
(9.70549 0.0164606 3.91289e-24)
(9.09608 0.00600215 4.7148e-22)
(8.76178 0.0207022 1.07024e-22)
(10.286 0.00324644 1.78247e-22)
(10.1456 0.00443505 -2.52969e-23)
(10.1462 0.00485382 2.52885e-23)
(10.1519 0.0062137 -1.2193e-21)
(10.1479 0.0075784 -1.98644e-21)
(10.1549 0.00409815 -8.79588e-22)
(10.1906 0.00623151 1.05907e-21)
(10.1074 0.00497673 -2.26918e-22)
(10.3172 0.000768371 1.36377e-22)
(10.1469 0.00535509 -9.45281e-22)
(10.1476 0.00636107 4.9539e-22)
(10.146 0.00828893 -4.96212e-22)
(10.1487 0.0075462 -6.81158e-22)
(10.1477 0.00931939 4.92246e-22)
(10.146 0.00770145 2.46511e-22)
(10.1421 0.00501426 1.86123e-21)
(10.1449 0.000841355 0)
(10.1378 -0.00529405 -6.38845e-22)
(10.1332 -0.00388251 3.09628e-22)
(10.1295 -0.00251068 1.99233e-21)
(10.1248 -0.000892618 3.76511e-22)
(10.1929 -0.00629085 -3.49987e-22)
(10.3171 -0.00338635 -5.89646e-22)
(10.1398 -0.00786625 3.99951e-22)
(10.1495 -0.0053417 2.65105e-23)
(10.1463 -0.00650154 8.82904e-22)
(10.1428 -0.00686677 0)
(9.76131 -0.0191679 -1.31367e-21)
(8.86913 -0.00639115 6.34968e-22)
(9.0755 -0.00157249 0)
(9.68093 0.0117749 5.64886e-23)
(8.75444 0.0197025 -7.38513e-22)
(10.313 0.0116556 1.98282e-22)
(10.1528 0.00531994 0)
(10.1531 0.00566228 -9.28031e-22)
(10.1565 0.00419836 -3.03705e-21)
(10.1737 0.0130429 2.20901e-21)
(10.1067 0.0038768 1.33962e-24)
(10.3164 0.00248437 -4.72278e-22)
(10.1533 0.00703957 1.10875e-21)
(10.1536 0.00847267 2.06768e-21)
(10.1501 0.00887667 2.03824e-21)
(10.1543 0.0101955 -1.41233e-21)
(10.1519 0.0101461 -1.03756e-21)
(10.1498 0.0104189 0)
(10.1473 0.00743658 -2.09455e-21)
(10.146 0.00574323 -2.13857e-21)
(10.1493 0.000841605 0)
(10.1392 -0.00591977 -2.92903e-21)
(10.1346 -0.00422838 7.66989e-21)
(10.1312 -0.00287799 3.40705e-21)
(10.1263 -0.000971586 -6.4245e-22)
(10.1769 -0.00777108 -2.66372e-22)
(10.3019 -0.00405685 1.57483e-22)
(10.1509 -0.00736804 -7.07785e-22)
(10.1405 -0.00800992 9.94763e-22)
(10.1407 -0.0063069 0)
(10.1483 -0.00888585 0)
(10.1446 -0.00788357 0)
(9.82312 -0.016646 2.90304e-22)
(8.87942 -0.00898642 4.84338e-22)
(9.68283 0.00518991 5.28639e-23)
(9.07973 -0.0089585 6.59846e-23)
(8.7607 0.0212324 -6.46412e-23)
(10.3286 0.0174066 -4.8862e-22)
(10.1584 0.00307177 0)
(10.1566 0.00472615 4.89427e-22)
(10.1652 0.0164952 7.42153e-22)
(10.1063 0.00380891 -1.11408e-21)
(10.3181 0.0080457 5.77737e-22)
(10.1571 0.00684474 -3.36119e-22)
(10.1584 0.00752599 -2.72102e-22)
(10.1553 0.0119662 -3.93863e-22)
(10.1597 0.0100896 0)
(10.1567 0.0139837 0)
(10.1542 0.0113776 -3.20015e-22)
(10.1523 0.0113582 2.70691e-21)
(10.1505 0.00816199 -1.11798e-20)
(10.1503 0.00585903 0)
(10.1538 0.000960347 0)
(10.1372 -0.00502796 4.13035e-21)
(10.1344 -0.00404953 -5.60589e-21)
(10.1283 -0.00110941 2.38786e-21)
(10.1395 -0.00566484 4.13307e-21)
(10.1526 -0.0104394 1.86539e-21)
(10.279 -0.00504148 -3.29861e-21)
(10.1513 -0.00929513 -9.96797e-23)
(10.1429 -0.00689387 0)
(10.1464 -0.00853849 0)
(10.1508 -0.0100379 -5.79418e-22)
(8.88508 -0.00588863 2.94127e-22)
(9.86049 -0.0142482 5.13811e-22)
(9.08962 -0.0249303 8.08673e-22)
(9.68727 -0.00847149 -7.80062e-22)
(8.76627 0.0185056 0)
(10.3381 0.0272519 1.04907e-21)
(10.0158 -0.0174739 1.28542e-19)
(10.1675 0.0158509 0)
(10.1636 0.00995834 -2.33311e-22)
(10.1129 0.0055966 -1.49824e-20)
(10.3296 0.00657172 -4.25968e-21)
(10.1529 0.0129964 1.46678e-21)
(10.1558 0.0114485 -4.54087e-22)
(10.1611 0.0120415 2.86253e-21)
(10.154 0.0166651 4.50147e-22)
(10.1632 0.0144977 -8.25649e-23)
(10.1585 0.0158272 -1.11046e-22)
(10.1568 0.0125627 0)
(10.1552 0.0122719 -6.05746e-21)
(10.1543 0.00894609 2.26045e-20)
(10.1549 0.00632978 0)
(10.1556 0.00431455 6.99822e-21)
(10.1571 -0.00064656 0)
(10.129 -0.000612915 0)
(10.1351 -0.00351613 2.41857e-21)
(10.132 -0.00246544 -3.6831e-21)
(10.1405 -0.00555198 2.0752e-22)
(10.1444 -0.00710537 1.60859e-21)
(10.1387 -0.0145184 0)
(10.2596 -0.0088767 1.42665e-21)
(10.1558 -0.0112561 1.26132e-21)
(10.148 -0.00901008 6.0549e-22)
(10.1532 -0.0103948 0)
(9.8888 -0.00619802 1.21795e-21)
(8.86758 -0.000140758 -6.96572e-22)
(9.10582 -0.0298167 4.08574e-20)
(9.74104 -0.0150076 -2.82173e-20)
(8.7812 0.0160075 3.20693e-20)
(10.3336 0.0299794 -1.04324e-21)
(10.0116 -0.00270882 -2.12874e-19)
(10.0142 -0.0198726 5.55647e-20)
(10.0108 -0.0138408 -6.24709e-20)
(10.022 -0.0211792 -8.27655e-20)
(10.0172 -0.0065131 1.88737e-19)
(10.028 -0.0266656 7.33555e-20)
(9.97291 0.0171396 2.77623e-20)
(10.3405 -0.0152742 1.95173e-20)
(10.2798 -0.02949 -1.84692e-20)
(10.1918 -0.000132206 -1.49574e-21)
(10.2033 0.00179306 -5.97306e-21)
(10.158 0.0114164 -2.86835e-22)
(10.1574 0.0177856 0)
(10.1617 0.0209162 -1.67173e-21)
(10.1652 0.0160231 0)
(10.161 0.0176584 0)
(10.1612 0.00788458 4.36572e-20)
(10.1599 0.0137819 1.10247e-21)
(10.1587 0.0130584 1.88819e-20)
(10.1589 0.00966218 -1.90239e-20)
(10.1589 0.00369265 -6.77097e-21)
(10.1583 -0.00140972 0)
(10.1603 0.000790061 0)
(10.1565 -0.00255316 1.26081e-20)
(10.1319 -0.00168143 -5.3967e-22)
(10.1355 -0.00320567 -7.57662e-21)
(10.1426 -0.00594672 -4.84192e-21)
(10.1462 -0.00745006 -5.20891e-21)
(10.1497 -0.00935142 -7.58296e-22)
(10.1389 -0.0198005 0)
(10.2597 -0.0109611 -2.95138e-21)
(10.1589 -0.0122231 -1.13345e-21)
(10.1552 -0.0102454 -1.65762e-23)
(9.89174 0.000598123 7.655e-21)
(8.7656 0.00648295 5.74535e-22)
(8.97731 0.0202314 2.60209e-20)
(10.3268 0.0113347 9.37754e-22)
(10.0008 -0.00197572 -5.617e-20)
(10.0042 -0.00162366 5.61982e-20)
(10.007 -0.00903329 0)
(10.0193 -0.0246152 -2.27457e-20)
(10.0112 -0.0246203 8.55653e-20)
(10.0069 -0.0176147 7.22583e-20)
(10.1498 -0.00528818 0)
(10.1551 -0.0109785 7.04194e-21)
(10.1567 -0.0250617 5.64081e-21)
(10.0258 -0.00782287 -2.87987e-21)
(10.0314 -0.0193404 -1.90876e-20)
(10.0242 -0.0120497 4.8025e-20)
(10.0341 -0.0269416 -6.53496e-21)
(10.0258 -0.030444 2.77506e-20)
(9.51767 0.0553161 -6.07601e-20)
(10.3523 -0.0333574 -4.44113e-21)
(10.3281 0.00757276 2.71183e-20)
(10.273 -0.00107723 -9.87165e-21)
(10.1691 0.0133995 -1.68168e-22)
(10.1652 0.00724914 1.72793e-21)
(10.1565 0.0225197 -1.31085e-20)
(10.1693 0.0209609 0)
(10.1676 0.018309 0)
(10.164 0.0197428 -1.08895e-21)
(10.1639 0.0102042 0)
(10.1635 0.0150017 0)
(10.1629 0.0135792 -6.45188e-21)
(10.1657 0.00203 0)
(10.1645 0.00461488 -3.16399e-20)
(10.1607 -0.00498504 -7.61661e-20)
(10.1647 -0.00157998 5.15144e-20)
(10.1657 -0.0165273 0)
(10.1735 -0.033954 1.58978e-20)
(10.1346 -0.00158079 8.01593e-21)
(10.1383 -0.00392975 -4.12007e-22)
(10.1454 -0.00664598 -2.01323e-20)
(10.148 -0.00788238 1.13702e-20)
(10.1514 -0.0097364 2.14325e-22)
(10.1569 -0.0104411 -1.64078e-22)
(10.1442 -0.0206531 8.48951e-22)
(10.2491 -0.0144591 1.06577e-21)
(10.161 -0.0117174 -4.7599e-22)
(9.93293 -0.0197095 -1.17689e-20)
(8.57837 0.00817735 1.81986e-20)
(10.0004 -0.00286477 -1.16407e-19)
(10.003 -0.00950438 4.95177e-20)
(10.0163 -0.0308071 -2.809e-20)
(10.0092 -0.0286035 1.9509e-21)
(10.0052 -0.0203264 -1.37941e-19)
(10.1443 -0.0173745 -1.26949e-20)
(10.1378 -0.00784074 1.07967e-20)
(10.1448 -0.0341507 0)
(10.1839 -0.0562423 -3.01269e-20)
(10.1624 -0.045171 -1.65772e-20)
(10.0401 -0.0164019 1.68669e-22)
(10.0392 -0.010979 -2.70481e-20)
(10.0414 -0.0308605 -1.92442e-22)
(10.0335 -0.0353821 -6.31569e-21)
(10.0237 -0.0376698 -2.91936e-20)
(8.65195 0.0442642 -4.47888e-20)
(9.83373 0.103506 1.29626e-20)
(10.364 0.0415965 -1.30757e-20)
(10.3117 0.0226622 1.09536e-21)
(10.1779 0.0168053 4.66279e-21)
(10.1679 0.0100118 2.81135e-21)
(10.1714 0.00907219 9.26458e-21)
(10.1591 0.0225839 -2.51971e-21)
(10.1699 0.0231589 2.77579e-21)
(10.1702 0.0206155 0)
(10.1676 0.0223376 -8.98897e-21)
(10.1674 0.0134648 -1.03619e-20)
(10.1678 0.0161232 0)
(10.1736 0.0019476 -2.23521e-20)
(10.1721 0.0057323 -1.11672e-20)
(10.1733 -0.00329383 4.92334e-20)
(10.1709 -0.00945544 -1.83648e-20)
(10.1811 -0.0231487 -1.12836e-20)
(10.1951 -0.0411624 4.74102e-20)
(10.1378 -0.00203345 -4.83904e-21)
(10.1416 -0.00474634 8.9825e-21)
(10.1632 -0.012824 2.24215e-21)
(10.1506 -0.00863578 6.63601e-21)
(10.1495 -0.00850179 0)
(10.153 -0.0102973 1.79305e-21)
(10.1584 -0.0107041 9.99515e-23)
(10.1539 -0.0103293 0)
(10.1536 -0.0178193 -1.84159e-21)
(10.1495 -0.018019 -1.563e-21)
(10.2878 -0.00593283 1.36115e-21)
(10.0372 -0.0552292 3.23335e-20)
(10.0008 0.00226677 -1.46977e-20)
(10.0003 -0.00386023 0)
(10.0021 -0.01203 3.14759e-20)
(10.0142 -0.0363875 -7.01323e-21)
(10.0068 -0.0331528 0)
(10.0036 -0.0233579 1.04861e-20)
(10.2207 -0.0691145 -5.37939e-20)
(10.1206 -0.0105269 -7.23381e-23)
(10.1008 -0.0129385 0)
(10.1302 -0.0240939 -5.03289e-21)
(10.1345 -0.043265 -1.21534e-21)
(10.0575 -0.0100883 0)
(10.0784 -0.00945997 0)
(10.1675 -0.0701454 1.45893e-20)
(10.148 -0.0552184 -1.43022e-22)
(10.051 -0.026074 1.044e-19)
(10.0432 -0.0388962 4.9896e-20)
(10.0332 -0.0448615 1.2747e-20)
(10.0211 -0.0446399 0)
(8.45732 -0.00198481 3.572e-20)
(9.41741 0.108927 0)
(10.2835 0.0579723 1.03684e-21)
(10.3183 0.0251727 -1.20735e-21)
(10.1959 0.0180916 6.24027e-21)
(10.1722 0.0124916 1.19621e-20)
(10.1769 0.0102266 0)
(10.1604 0.0240904 3.83764e-21)
(10.1718 0.0254178 -8.11118e-22)
(10.1732 0.0234586 -3.50366e-21)
(10.1721 0.0251155 -1.67749e-21)
(10.1729 0.016824 2.0205e-22)
(10.1838 0.00153621 -1.29294e-20)
(10.1806 0.00643603 1.45026e-20)
(10.1855 -0.00515612 1.34322e-20)
(10.1849 -0.0134561 -1.21885e-20)
(10.201 -0.0269601 -4.74694e-20)
(10.228 -0.0455914 3.37727e-24)
(10.1415 -0.00257161 -2.68828e-21)
(10.151 -0.00716551 -2.96392e-20)
(10.1463 -0.00598205 1.86035e-20)
(10.1726 -0.0182947 -2.11424e-21)
(10.1648 -0.0129028 -6.4114e-22)
(10.1547 -0.0110801 -1.70111e-21)
(10.1566 -0.0118221 0)
(10.1598 -0.0112334 1.3107e-21)
(10.1569 -0.0120137 8.54389e-21)
(10.1589 -0.0128459 0)
(9.6649 -0.0878143 -8.2249e-20)
(9.38433 -0.0905961 1.47461e-20)
(10.1402 -0.00816877 0)
(10.3265 0.00276556 5.39976e-21)
(10.0004 0.00279669 1.4386e-19)
(10.0022 0.00844749 -1.36756e-19)
(10.0046 0.00104041 0)
(10.0003 -0.00456915 -1.95932e-20)
(10.0014 -0.0137753 7.19029e-20)
(10.0115 -0.0425228 5.93449e-21)
(10.0037 -0.0352033 0)
(10.0013 -0.0245214 -1.65584e-19)
(10.2051 -0.091333 5.37682e-20)
(10.2663 -0.0674163 2.26307e-20)
(10.1189 -0.0326663 -3.41784e-21)
(10.1015 -0.0267187 0)
(10.1186 -0.0514686 4.85957e-21)
(10.0819 -0.0232819 0)
(10.065 -0.0273033 -8.72499e-20)
(10.1471 -0.0803746 1.53638e-20)
(10.1315 -0.0602347 3.85918e-21)
(10.0554 -0.0402269 -2.00922e-20)
(10.0446 -0.0518538 -1.17282e-20)
(10.0301 -0.0533047 4.04508e-20)
(10.0165 -0.0520199 -3.83509e-20)
(8.16081 -0.023187 5.07151e-21)
(9.11398 0.0769014 3.3276e-21)
(9.05085 -0.0677809 6.79893e-21)
(10.2356 0.0382482 -2.31513e-21)
(10.3408 0.0272787 2.11334e-21)
(10.2081 0.0225456 -2.3788e-21)
(10.1786 0.016484 0)
(10.1847 0.0145593 -1.93575e-20)
(10.1621 0.0273233 -4.53336e-21)
(10.1735 0.0282439 7.57078e-21)
(10.1779 0.0266293 1.49446e-21)
(10.1772 0.0273328 1.10405e-20)
(10.1908 0.0106024 1.93511e-20)
(10.1962 0.00464163 0)
(10.2005 -0.00370948 0)
(10.2024 -0.0143303 0)
(10.2291 -0.0241516 0)
(10.2668 -0.0398417 -4.67367e-20)
(10.3058 -0.0634195 -7.31227e-20)
(10.1458 -0.00304175 2.68815e-21)
(10.1519 -0.00551193 8.28539e-21)
(10.1666 -0.013747 2.31802e-21)
(10.1658 -0.013933 1.76258e-22)
(10.1612 -0.0122638 -1.57443e-21)
(10.1627 -0.0135137 -1.83494e-21)
(10.165 -0.0148973 0)
(10.1587 -0.011707 0)
(10.1617 -0.0137902 0)
(10.1705 -0.00446587 0)
(10.3663 -0.0137477 3.98675e-20)
(10.2982 -0.0295082 -3.0178e-20)
(10.0006 0.00484522 3.58965e-20)
(10.0023 0.0108662 -2.79994e-20)
(10.0049 0.0140269 -6.96642e-20)
(10.0137 0.00793531 0)
(10.0073 0.0109469 0)
(9.99992 -0.00489818 5.48284e-21)
(10.0009 -0.0153965 4.30641e-20)
(10.0078 -0.0459496 -1.27234e-21)
(10.0001 -0.03962 -2.96596e-20)
(9.9994 -0.0301188 2.68305e-19)
(10.1824 -0.107199 1.46066e-22)
(10.2518 -0.0954692 4.55499e-20)
(10.3319 -0.104495 -7.17731e-20)
(10.0714 -0.0447523 -6.54539e-20)
(10.1023 -0.0508452 2.07733e-20)
(10.0892 -0.0406297 2.99566e-20)
(10.125 -0.0862516 0)
(10.1146 -0.0631387 -1.98652e-21)
(10.0586 -0.0588243 -1.61893e-20)
(10.0413 -0.0623412 -4.45077e-20)
(10.023 -0.062365 2.2535e-20)
(10.0111 -0.0568607 -1.42392e-20)
(10.3285 -0.0677787 0)
(8.03799 -0.014484 -4.76776e-21)
(8.96723 0.0593672 2.26377e-21)
(8.85643 -0.0372864 -5.17401e-21)
(10.2084 0.0304279 7.18999e-22)
(10.3521 0.0290959 -7.02328e-22)
(10.2155 0.0307949 0)
(10.1841 0.0284763 0)
(10.1921 0.0277764 1.98754e-20)
(10.1773 0.0321441 0)
(10.1638 0.0352921 -7.58829e-23)
(10.1836 0.0299125 -1.45089e-21)
(10.2009 0.0245174 -1.98638e-20)
(10.21 0.0182424 0)
(10.2187 0.00815851 0)
(10.2256 -0.00593149 0)
(10.2611 -0.0151213 0)
(10.2944 -0.0339256 3.65574e-20)
(10.3373 -0.048537 2.13577e-19)
(10.3657 -0.0675925 1.71741e-20)
(10.1492 -0.00212398 0)
(10.1556 -0.005807 -8.38733e-21)
(10.1675 -0.0131685 0)
(10.1667 -0.0146735 5.91555e-21)
(10.1676 -0.0170005 -1.54818e-20)
(10.1681 -0.0192182 4.73105e-21)
(10.1679 -0.0166608 -1.61799e-20)
(10.1626 -0.012311 2.60863e-21)
(10.1643 -0.0135403 0)
(10.167 -0.0177077 2.38879e-20)
(10.1792 -0.0113259 0)
(10.2687 0.0176716 1.65123e-20)
(10.0006 0.00603107 -6.63392e-20)
(10.024 0.00792151 2.01451e-20)
(10.0034 0.0164451 0)
(10.0063 0.0204319 -1.20024e-21)
(10.0114 0.0147303 5.67407e-20)
(9.99982 -0.00454659 0)
(9.99905 -0.0147247 -4.79313e-20)
(10.0024 -0.0501738 3.29781e-20)
(9.99526 -0.0388502 0)
(9.99592 -0.0297266 0)
(9.99821 -0.0211414 -1.81873e-21)
(10.1556 -0.117116 -2.45063e-21)
(10.3758 -0.14329 1.00418e-19)
(10.2208 -0.121584 -2.29045e-21)
(10.2941 -0.132217 -7.35891e-20)
(10.105 -0.0877156 5.44158e-20)
(10.0758 -0.0604836 0)
(10.0949 -0.0660409 -2.4571e-20)
(10.0558 -0.0714825 0)
(10.0311 -0.0740536 4.99354e-21)
(10.0152 -0.069437 4.30362e-20)
(10.0038 -0.0620346 -1.71704e-20)
(10.2778 -0.0441446 0)
(7.97169 -0.0143011 2.83077e-21)
(8.87345 0.0583293 -3.6798e-21)
(8.77242 -0.0338195 -7.70808e-22)
(10.1706 0.0247912 9.30112e-22)
(10.3546 0.0321538 1.28301e-21)
(10.2175 0.0455136 6.02287e-22)
(10.2025 0.0342647 2.16531e-20)
(10.192 0.0326875 -1.05209e-20)
(10.1839 0.0375325 1.26231e-21)
(10.1675 0.0486909 -1.35766e-21)
(10.2142 0.0323739 -2.86054e-20)
(10.2268 0.0271795 1.69885e-20)
(10.2517 0.00461005 0)
(10.2397 0.0185532 0)
(10.2846 -0.00717869 -1.30661e-20)
(10.3523 -0.00679799 7.77318e-20)
(10.3228 -0.0104966 0)
(10.3868 -0.0273207 -2.16464e-19)
(10.4095 -0.0981656 -1.38816e-19)
(10.1534 -0.00199103 4.60139e-21)
(10.1592 -0.00539034 -2.49158e-21)
(10.1663 -0.0119282 1.79762e-20)
(10.1677 -0.0190117 4.11268e-21)
(10.1709 -0.0178411 1.3443e-20)
(10.1709 -0.0223749 -1.95326e-21)
(10.1721 -0.0176948 3.80199e-22)
(10.1683 -0.0143423 -2.20977e-21)
(10.1694 -0.0195189 8.68036e-21)
(10.1625 -0.0250276 0)
(10.2431 -0.0113433 -2.68435e-22)
(10.0002 0.00576229 -4.0615e-20)
(10.0016 0.0153461 8.27219e-20)
(10.0388 0.00743756 -2.92248e-20)
(10.0282 0.0195713 -5.3208e-20)
(10.0054 0.0232376 3.26326e-20)
(10.0107 0.0237524 -2.44792e-20)
(10.0205 0.0216374 5.20129e-20)
(9.99812 -0.0115128 0)
(9.99964 -0.00369937 0)
(9.99562 -0.0495736 -1.67799e-20)
(9.99021 -0.0373566 -5.57348e-20)
(9.99263 -0.0285311 1.70767e-20)
(9.99556 -0.0198244 1.86058e-21)
(10.1294 -0.12086 -1.73376e-20)
(10.4297 -0.194632 -1.72998e-19)
(10.1871 -0.141318 -4.56035e-21)
(10.3358 -0.183466 2.63722e-20)
(10.2546 -0.170512 2.99588e-20)
(10.0896 -0.0917672 -4.40401e-20)
(10.0717 -0.0773536 -1.30861e-20)
(10.106 -0.120136 2.44101e-20)
(10.0438 -0.0869618 -7.2596e-20)
(10.0215 -0.0847298 0)
(10.0054 -0.0762226 -1.34114e-20)
(9.99426 -0.0625071 -3.59075e-21)
(10.3034 -0.0456743 5.32546e-22)
(7.93229 -0.0224549 0)
(8.7823 0.0615769 1.11793e-21)
(8.69507 -0.0299572 0)
(10.1348 0.0194158 -1.33526e-21)
(10.3541 0.0365261 -5.9571e-22)
(10.2088 0.0612132 9.45399e-23)
(10.2077 0.0498955 0)
(10.1941 0.0439207 8.91593e-22)
(10.1761 0.0610215 1.57165e-20)
(10.2255 0.043969 0)
(10.2399 0.0380358 3.3634e-20)
(10.2713 0.0133245 -4.37387e-21)
(10.256 0.0289893 -3.87099e-20)
(10.3098 0.00233167 -2.53114e-21)
(10.3587 0.0308323 9.62229e-20)
(10.3963 0.00753141 -4.42869e-20)
(10.4345 -0.0478574 1.61604e-19)
(10.4675 -0.138481 3.97356e-20)
(10.157 -0.00187212 0)
(10.1639 -0.00511416 0)
(10.1708 -0.0110173 -2.44103e-20)
(10.1724 -0.0147093 6.50957e-22)
(10.1684 -0.023103 -9.49371e-21)
(10.1722 -0.0205367 0)
(10.1739 -0.0264312 -2.4221e-21)
(10.1746 -0.0191441 -3.8366e-21)
(10.1736 -0.0203769 3.53049e-21)
(10.1691 -0.0270722 4.3611e-21)
(10.2608 -0.0136432 1.21405e-22)
(10.0001 0.00434478 3.33596e-20)
(10.0004 0.0131244 8.36164e-20)
(10.0018 0.0206618 -1.22276e-19)
(10.0037 0.0245432 -4.43342e-20)
(10.057 0.00733526 0)
(10.0413 0.0194755 3.40816e-20)
(10.0334 0.03018 -4.10974e-20)
(10.0089 0.0290949 -1.42929e-20)
(10.0168 0.0302368 0)
(10.0272 0.0310925 -8.74768e-20)
(10.0774 0.00695093 -4.22754e-21)
(9.99704 -0.00801407 5.01373e-20)
(9.99954 -0.002286 0)
(9.99985 0.00370548 0)
(9.98793 -0.0473087 -2.07407e-20)
(9.98541 -0.0315785 4.3941e-20)
(9.99237 -0.0154099 -5.40336e-20)
(9.98822 -0.0235026 0)
(10.1493 -0.155354 -3.39775e-22)
(10.3836 -0.243827 1.49853e-20)
(10.2114 -0.19427 5.89643e-21)
(10.2897 -0.220207 3.09664e-22)
(10.0817 -0.115732 3.31838e-20)
(10.0606 -0.0989237 5.9944e-20)
(10.1122 -0.160297 0)
(9.98325 -0.0602273 4.40582e-20)
(10.0332 -0.103693 -7.7888e-22)
(10.0094 -0.0952306 0)
(9.99233 -0.0781725 -1.65782e-20)
(10.2869 -0.0421396 -7.69539e-23)
(7.90016 -0.0266399 4.5449e-22)
(8.6986 0.0680745 -6.96836e-22)
(8.64887 -0.0268993 -1.23486e-21)
(10.2081 0.070877 0)
(10.1219 0.00704646 1.13206e-22)
(10.3478 0.0396398 -1.18743e-22)
(10.2062 0.0673074 -2.32812e-20)
(10.1901 0.0704482 3.65625e-21)
(10.2487 0.0628177 -7.64383e-21)
(10.2332 0.0613142 2.841e-20)
(10.2906 0.037368 -5.48582e-20)
(10.3239 0.0460269 -1.00527e-19)
(10.2712 0.0408265 7.16375e-20)
(10.3827 0.0484262 0)
(10.4462 0.00871152 9.68998e-20)
(10.496 -0.0759754 0)
(10.159 -0.00160858 4.33916e-21)
(10.1713 -0.00411271 4.48036e-20)
(10.1755 -0.00926611 0)
(10.1774 -0.0143861 -3.78316e-22)
(10.1783 -0.0210352 -1.05461e-20)
(10.1699 -0.029379 0)
(10.1746 -0.0225966 0)
(10.1776 -0.0295611 -3.54844e-22)
(10.1794 -0.0213223 1.022e-20)
(10.1701 -0.0342108 1.1285e-21)
(10.2637 -0.0191784 -1.08366e-21)
(10.1563 0.000496451 -5.27948e-21)
(10.1516 0.00160117 0)
(9.99937 0.0130909 1.34615e-20)
(9.99925 0.0213921 0)
(10.0029 0.0287688 4.65748e-20)
(10.0068 0.0324784 1.43334e-20)
(10.0576 0.0203674 0)
(10.0441 0.0315039 5.71775e-20)
(10.0345 0.0368945 3.7746e-21)
(10.0144 0.0367236 0)
(10.0243 0.038024 0)
(10.0758 0.0219088 -4.31146e-22)
(10.0983 0.00594221 -4.05292e-21)
(10.1177 0.00349174 0)
(10.1334 0.00015549 4.69705e-20)
(10.1467 0.00504565 -4.6494e-20)
(9.99927 0.0006442 0)
(9.99572 -0.00261009 0)
(9.99966 0.00200006 0)
(9.99823 0.0115426 0)
(9.97159 -0.0514502 -2.15788e-20)
(9.98002 -0.0395166 5.48454e-20)
(9.98185 -0.0249429 0)
(9.98895 -0.00926084 5.34772e-20)
(10.1641 -0.213959 2.08683e-20)
(10.3307 -0.287345 2.315e-20)
(10.2387 -0.251976 -2.1105e-20)
(10.0513 -0.123406 2.83595e-21)
(10.0774 -0.139379 -6.30609e-22)
(10.0969 -0.191824 1.04858e-20)
(10.1188 -0.229939 -3.69098e-20)
(9.96073 -0.0655651 0)
(9.97672 -0.0760181 -2.64631e-21)
(10.0186 -0.118594 0)
(9.99121 -0.0998259 0)
(10.3062 -0.0435381 0)
(8.60751 0.0737834 -1.71708e-22)
(7.85607 -0.0309088 -2.6171e-22)
(8.71541 -0.0394383 -1.01422e-20)
(10.3332 0.0514107 0)
(10.1662 -0.00310391 -4.25587e-21)
(10.2187 0.0957179 -3.98718e-21)
(10.2414 0.0727659 -1.40675e-20)
(10.3203 0.0856246 0)
(10.2789 0.0802216 0)
(10.3615 0.0806173 -3.9003e-20)
(10.4432 0.0643409 4.53774e-21)
(10.5129 -0.00720568 2.47413e-20)
(10.1693 0.000872168 -5.35449e-20)
(10.1803 -0.00708054 0)
(10.1829 -0.0128295 1.44903e-20)
(10.1842 -0.0208393 3.79344e-22)
(10.1847 -0.0230741 1.82945e-21)
(10.1726 -0.0367314 -1.1627e-21)
(10.1786 -0.0255218 1.5369e-21)
(10.1826 -0.0324536 0)
(10.2663 -0.0251148 3.0269e-22)
(10.172 -0.0416173 -7.42503e-22)
(10.1567 0.0133455 2.24359e-20)
(10.1668 0.00522796 8.7613e-21)
(10.1611 0.00984503 -2.85463e-21)
(9.99798 0.0212398 1.63994e-20)
(9.99973 0.0292925 -3.18882e-20)
(10.005 0.0372144 -1.61027e-20)
(10.0118 0.0416956 1.36544e-20)
(10.0586 0.0335476 0)
(10.0451 0.0409547 2.20699e-20)
(10.0334 0.0450171 -3.57081e-21)
(10.0219 0.0456582 1.12458e-21)
(10.0746 0.0364046 -1.72009e-20)
(10.0962 0.0270773 1.46467e-20)
(10.0917 0.0378028 -7.58161e-21)
(10.1582 0.0227919 1.36519e-20)
(10.1155 0.0254653 -1.12677e-23)
(10.1474 0.0238569 -1.15524e-21)
(10.1332 0.0238433 4.13727e-21)
(9.99665 0.00852676 0)
(9.99262 0.00363095 0)
(9.99564 0.0196142 6.10245e-20)
(9.98541 0.00244184 -1.07189e-19)
(9.96077 -0.0417159 -5.67959e-20)
(9.97242 -0.0311246 2.54978e-20)
(9.98089 -0.0125227 1.70427e-20)
(9.94677 -0.0509325 0)
(10.1844 -0.276265 0)
(10.2717 -0.324645 1.49775e-20)
(10.0366 -0.1556 -2.35479e-20)
(10.0557 -0.210081 3.1636e-20)
(10.0613 -0.168767 3.08041e-20)
(10.0653 -0.248087 -1.58197e-20)
(10.1285 -0.293562 6.26092e-21)
(9.96894 -0.0962671 -4.44771e-20)
(9.94791 -0.0813494 5.29387e-20)
(9.99174 -0.12962 -3.8617e-20)
(10.3892 -0.0543831 2.69692e-21)
(8.51384 0.103516 8.96688e-21)
(7.78549 -0.0326851 -4.76207e-20)
(8.72384 -0.0980721 -5.91469e-21)
(10.3602 0.0608987 1.69469e-20)
(10.2567 0.0168269 -1.84402e-20)
(10.2521 0.108576 4.20971e-20)
(10.263 0.0819349 -2.31752e-20)
(10.3417 0.118069 1.84257e-19)
(10.4263 0.118301 3.11706e-19)
(10.5174 0.0634358 -2.35525e-19)
(10.1814 -0.00175918 0)
(10.1886 -0.00957343 -3.03854e-20)
(10.1911 -0.0191003 -1.09323e-22)
(10.1918 -0.0239156 -1.18877e-20)
(10.1893 -0.0342063 1.19157e-21)
(10.1782 -0.0446541 3.88546e-22)
(10.1845 -0.0294099 5.87416e-22)
(10.2331 -0.0325435 -2.67734e-22)
(10.1693 -0.0499103 0)
(10.1671 0.0145985 0)
(10.1816 0.0047129 0)
(9.99305 0.0283348 1.01852e-19)
(9.99684 0.0297934 -1.67967e-20)
(10.001 0.038573 4.9794e-20)
(10.0089 0.0477002 0)
(10.0193 0.0526347 -4.34747e-20)
(10.059 0.0454453 -6.45418e-21)
(10.045 0.0510228 -1.45251e-21)
(10.0316 0.0546801 1.48171e-20)
(10.0744 0.0484589 1.09744e-20)
(10.0909 0.0553781 1.71164e-20)
(10.1065 0.0473648 -6.03708e-21)
(10.1683 0.0239677 5.9715e-21)
(10.1638 0.0307902 1.45157e-20)
(10.1218 0.0443004 1.21183e-21)
(10.1537 0.0350603 -2.50648e-21)
(10.1395 0.0399705 -1.32461e-20)
(9.99258 0.0164991 5.80917e-20)
(9.98735 0.0117363 7.48859e-20)
(9.9891 0.02487 -2.20973e-19)
(9.97704 0.000862239 -1.78155e-20)
(9.93091 -0.0667389 1.64503e-20)
(9.95033 -0.0236211 -2.77351e-19)
(9.96442 -0.0122703 8.90097e-20)
(9.9341 -0.0260289 0)
(9.98672 0.0317046 4.48726e-20)
(10.2074 -0.353166 -3.08468e-21)
(9.99982 -0.170995 0)
(10.0114 -0.202568 6.75971e-20)
(10.0204 -0.249353 -3.92454e-20)
(10.0698 -0.303698 0)
(10.1382 -0.371547 -4.53901e-21)
(9.94628 -0.162165 -9.4494e-20)
(9.95311 -0.129225 3.23229e-20)
(9.92724 -0.119671 -1.34337e-19)
(10.4167 -0.0956 7.43938e-21)
(8.32331 0.223341 3.28137e-21)
(7.78366 -0.0421436 2.98589e-19)
(8.31895 -0.22805 -1.70315e-19)
(10.3275 0.149798 -1.86102e-21)
(10.2874 0.143101 -1.60564e-19)
(10.3539 0.148171 8.1665e-20)
(10.3953 0.167536 -1.84499e-19)
(10.5062 0.136401 -7.77197e-21)
(10.1936 -0.004184 1.59941e-20)
(10.1984 -0.0150082 -3.42006e-23)
(10.2006 -0.0227287 1.69813e-20)
(10.1986 -0.0345121 -1.12871e-21)
(10.185 -0.0540184 -7.48763e-22)
(10.1927 -0.0332991 1.86617e-21)
(10.2111 -0.0519597 1.56164e-22)
(10.1762 -0.0604547 2.01956e-20)
(10.1818 0.01331 0)
(10.1974 0.00374571 -1.82532e-20)
(9.99125 0.0370804 -3.71471e-20)
(9.9965 0.0391261 -3.32713e-20)
(10.0037 0.0512446 0)
(10.0162 0.0614161 -2.77383e-20)
(10.0295 0.0631226 1.58374e-20)
(10.0593 0.0565502 6.20854e-21)
(10.0439 0.0635389 0)
(10.0758 0.0615358 -3.09929e-21)
(10.0945 0.0631429 -1.72519e-21)
(10.1133 0.062718 4.38842e-21)
(10.1812 0.0243719 -1.0437e-20)
(10.1751 0.0349679 0)
(10.1314 0.0589063 -5.37997e-22)
(10.1642 0.0447217 -1.05413e-21)
(10.1492 0.0525809 -7.25923e-21)
(9.97911 0.0114808 -3.24532e-20)
(9.98209 0.0238848 0)