/*--------------------------------*- C++ -*----------------------------------*\
  =========                 |
  \\      /  F ield         | OpenFOAM: The Open Source CFD Toolbox
   \\    /   O peration     | Website:  https://openfoam.org
    \\  /    A nd           | Version:  8
     \\/     M anipulation  |
\*---------------------------------------------------------------------------*/
FoamFile
{
    version     2.0;
    format      ascii;
    class       surfaceScalarField;
    location    "0.035";
    object      phi;
}
// * * * * * * * * * * * * * * * * * * * * * * * * * * * * * * * * * * * * * //

dimensions      [0 3 -1 0 0 0 0];

internalField   nonuniform List<scalar> 
1107
(
0.000315987
-0.000643381
0.000633492
-0.000306098
0.000616968
-0.000300981
-2.96809e-05
0.000646649
0.000304969
0.000538559
-0.000106656
-0.000736872
-0.000968694
0.000630282
-9.76233e-05
0.000701435
0.000286064
-5.36039e-05
-1.49169e-05
-3.72576e-05
0.000683906
-3.30692e-05
1.43533e-05
-8.79399e-05
0.000180749
-0.00014881
-6.50086e-05
0.000300279
-0.000856401
-0.00126762
0.000599208
-0.000207371
0.000740029
0.00076088
-9.67031e-05
4.16844e-05
0.000814737
-9.55414e-05
3.58211e-06
-4.28326e-05
-1.13348e-05
0.000725591
0.000852792
2.98937e-05
-6.79481e-05
6.448e-05
-0.000126765
-8.65247e-05
2.51515e-05
-4.86114e-05
0.000227343
-0.000140696
-0.000213413
0.000277831
-0.000115496
0.00029655
-0.000875121
-0.00151047
0.000539399
-0.000366285
0.000758123
0.00082857
-0.000185244
0.000898847
-0.000165819
5.21617e-06
-2.28973e-05
-6.11864e-06
-2.21916e-05
0.000864693
1.02897e-05
0.000755484
0.000945575
-0.000114676
0.000962709
-3.9325e-05
0.000951049
-2.39222e-05
3.5582e-05
3.53892e-05
-7.27233e-05
-4.91906e-05
1.36164e-05
-2.68386e-05
-8.23637e-05
-0.000131055
0.000322061
-0.00021505
-0.000320423
0.000397118
-0.000190553
0.000306653
-0.000784656
0.000459708
-0.00166353
-0.00056994
0.000743054
0.000880492
-0.000307613
0.000967741
-0.000253068
2.99677e-06
-1.22777e-05
-3.12186e-06
8.8013e-05
0.000916181
-5.31446e-05
0.000853095
-1.2324e-05
0.000765774
0.00102503
-0.000171962
0.0010491
-6.33943e-05
0.00103818
4.64966e-05
0.000998119
0.000128075
-0.000118189
0.000931849
0.000184459
5.74181e-05
-0.000104136
-3.5646e-05
2.75896e-05
-1.93621e-05
1.04088e-05
-9.65782e-06
-0.000129688
-0.000216418
-6.1893e-05
-0.00017193
0.000690711
-0.000800943
0.000901655
-0.000466214
0.00100972
-0.000361132
2.20723e-06
-4.07609e-06
-9.14631e-07
0.000865128
-6.71367e-05
0.000823608
-2.36576e-05
0.00075345
0.000822253
-0.000147061
0.000256657
0.00107779
-0.000240035
0.00110841
-9.40161e-05
0.00109997
5.49413e-05
0.00105609
0.000171952
0.000972843
0.000267708
4.56288e-05
-3.06081e-05
-7.69137e-05
2.44324e-05
-1.44497e-05
1.14653e-05
-6.39502e-06
4.27901e-06
-2.47153e-06
0.00087618
-0.000651683
0.00100341
-0.000488359
8.82662e-07
-6.79738e-07
-3.19703e-08
0.000333606
0.000669699
-0.000181052
0.000790295
-7.22279e-05
0.000785379
-2.89079e-05
0.000729793
0.000826171
0.00040333
0.000622086
0.00053769
0.000388022
-0.0012947
0.00152876
0.00108168
-0.000318309
0.00112083
-0.000133164
0.00111943
5.6342e-05
0.00107434
0.00021704
0.000972561
0.000369486
-3.58437e-05
-5.57532e-05
6.09888e-05
-1.92603e-05
-3.1033e-05
-9.09153e-06
-1.65638e-05
-3.38062e-06
-8.18244e-06
-6.70928e-07
-3.38942e-06
-7.02901e-07
0.000988652
0.000344836
-0.000945466
0.000371388
-0.000996387
0.000687894
-7.86511e-05
0.000738966
-2.58148e-05
0.000700885
0.000791702
0.000584189
0.000546509
0.000782884
0.000411313
0.00166396
0.000482343
0.000917621
-5.77103e-05
-9.52278e-05
9.71849e-05
-3.12477e-05
-5.74956e-05
-1.47509e-05
-3.30606e-05
-5.46152e-06
-1.74719e-05
-1.09365e-06
-7.7573e-06
-1.79655e-06
0.000102487
0.000299622
-5.7273e-05
0.000227458
-0.000801536
0.00035776
-0.000666253
0.000680814
-2.04988e-05
0.00067507
0.000414203
0.000170628
-4.43172e-05
-0.000124903
7.3992e-05
-2.43683e-05
-7.74444e-05
-1.1729e-05
-4.56999e-05
-4.46332e-06
-2.47376e-05
-9.68153e-07
-1.12525e-05
-2.76471e-06
0.000247237
0.000201588
-0.000149203
0.000200727
-3.05427e-05
0.000136079
-0.000579854
0.000342981
-0.00032842
0.000654571
0.00029554
0.0003659
-1.44656e-05
-0.00013356
2.31226e-05
-8.20802e-06
-8.3702e-05
-4.06663e-06
-4.98413e-05
-1.63357e-06
-2.71706e-05
-3.99554e-07
-1.24865e-05
-3.16426e-06
0.00015007
0.000135107
-8.35885e-05
0.000128273
-7.67489e-05
0.000120665
-1.51287e-05
6.99436e-05
-0.000306817
0.000326151
0.000199758
0.000245852
1.41671e-05
-0.000121797
-2.593e-05
7.20685e-06
-7.67418e-05
3.21515e-06
-4.58496e-05
1.13562e-06
-2.50911e-05
1.83497e-07
-1.15344e-05
-2.98077e-06
0.00012916
7.78902e-05
-7.19436e-05
8.51544e-05
-4.04702e-05
7.37491e-05
-2.98332e-05
5.92063e-05
-4.39142e-06
1.9334e-05
0.000118388
0.00021053
-8.81044e-05
5.92106e-05
0.000147282
1.63425e-05
-3.59045e-05
-0.000102235
7.64905e-06
-6.80484e-05
3.2744e-06
-4.14749e-05
1.18152e-06
-2.29982e-05
2.27696e-07
-1.05806e-05
-2.75307e-06
3.8024e-05
-4.82381e-05
4.80196e-05
-3.48088e-05
4.85981e-05
-1.53192e-05
3.52242e-05
-5.85108e-06
1.49426e-05
-5.13193e-05
2.39092e-05
8.66206e-05
-3.15336e-05
5.7049e-05
-6.69903e-05
-1.24234e-05
-4.21085e-05
-2.78619e-06
-2.02177e-05
-5.53924e-06
1.4491e-05
-2.77864e-05
2.28541e-05
-2.30726e-05
2.69095e-05
-1.31202e-05
2.29902e-05
-3.08522e-06
9.09152e-06
5.25133e-06
-2.52833e-05
4.39413e-05
-2.14781e-06
6.85488e-06
7.17183e-06
-1.18789e-05
-1.28316e-05
5.53841e-05
-6.27702e-05
-1.83709e-05
-1.49599e-06
-8.12046e-06
1.48678e-05
2.56861e-06
-1.33609e-05
8.21962e-06
-1.31519e-05
1.25074e-05
-8.67045e-06
1.25716e-05
-2.70164e-06
6.0063e-06
1.34715e-06
4.19219e-06
-7.68714e-06
-5.62432e-07
3.36e-06
4.05732e-06
-1.87563e-06
8.31728e-06
-1.65397e-05
1.00981e-05
-2.7595e-06
-5.16772e-07
1.78028e-06
-1.49841e-06
-4.05342e-06
1.05693e-06
-6.19822e-06
4.25424e-06
-4.89879e-06
5.72832e-06
-1.82716e-06
3.30465e-06
3.20455e-06
1.61407e-06
-3.47147e-06
1.52235e-06
2.10741e-06
7.03462e-08
1.41402e-06
-7.50957e-07
2.98913e-06
6.07908e-06
-2.63766e-06
4.73166e-06
-2.34967e-05
2.14027e-05
-1.96985e-06
1.93593e-06
-2.72557e-06
-2.01493e-06
-2.23627e-10
-1.22858e-06
-1.7679e-06
3.32252e-07
-2.27624e-06
1.85274e-06
-1.02321e-06
1.4775e-06
3.54371e-06
-3.08273e-07
-3.08807e-08
2.45939e-06
6.77016e-07
1.238e-06
9.39762e-07
2.12863e-07
4.50197e-07
-2.02398e-07
5.53872e-07
-5.72479e-07
5.30412e-06
-1.11144e-06
1.58774e-06
-2.44614e-06
-1.28442e-06
1.20545e-06
-1.34572e-06
1.1692e-07
-8.31832e-07
-6.03818e-07
4.80646e-08
-4.71563e-07
4.54286e-07
2.50469e-06
-2.1055e-06
3.14452e-06
2.46231e-06
-3.11189e-07
1.67408e-06
2.40937e-07
8.24563e-07
3.28069e-07
1.67716e-07
8.00853e-08
-1.86012e-08
-1.53715e-06
-8.64629e-07
1.29034e-06
-6.10514e-07
9.13864e-07
-7.74655e-07
6.34387e-07
-7.98521e-07
8.36133e-08
-4.44843e-07
-1.10909e-07
-1.72768e-08
1.39635e-06
-1.88774e-06
2.99609e-06
1.60555e-06
-1.24874e-06
1.56691e-06
-2.04013e-07
1.00387e-06
6.16315e-08
4.34002e-07
6.17878e-08
6.14859e-08
-2.24249e-06
-1.26589e-06
1.97124e-06
-9.58913e-07
-5.16197e-07
-3.13512e-07
4.5273e-07
-4.20902e-07
2.56771e-07
-3.89069e-07
2.78419e-08
-1.28184e-07
1.98839e-06
1.17199e-06
-1.76404e-06
7.81956e-07
-1.06415e-06
9.49653e-07
-6.31486e-07
8.9459e-07
-9.47337e-08
4.90849e-07
4.78751e-09
1.23274e-07
-2.66749e-06
-6.90354e-07
1.11535e-06
-1.48953e-06
-7.35237e-07
-5.61649e-07
-2.68054e-07
-1.43121e-07
1.74954e-07
-1.89436e-07
5.71417e-08
-1.0034e-07
-2.59026e-06
1.52536e-07
-2.29753e-07
1.16629e-06
-1.76816e-06
1.25278e-06
7.01168e-07
4.06383e-07
-5.20887e-07
5.0941e-07
-2.46306e-07
4.2111e-07
-2.49937e-08
1.28061e-07
-1.78758e-06
-3.9228e-07
-9.27414e-07
-3.69469e-07
-3.00788e-07
-1.10382e-07
-5.07442e-08
3.62662e-08
-4.31966e-08
-1.72879e-06
9.37672e-08
6.90272e-07
7.42921e-07
3.64629e-07
1.88365e-07
-1.99842e-07
2.27146e-07
-5.23422e-08
1.03067e-07
-1.12448e-06
-1.95212e-07
-5.24613e-07
-1.45641e-07
-1.35477e-07
-2.56445e-08
-6.93016e-09
-1.08106e-06
5.03452e-08
3.52139e-07
4.0282e-07
1.50174e-07
6.82691e-08
-4.09648e-08
5.07244e-08
-6.42223e-07
-7.76008e-08
-2.48377e-07
-3.27388e-08
-3.25734e-08
-6.14069e-07
2.21937e-08
1.4089e-07
1.83429e-07
3.50135e-08
9.76018e-09
-3.07801e-07
-1.81759e-08
-6.53113e-08
-2.91894e-07
6.28886e-09
3.24245e-08
4.47737e-08
-8.34872e-08
-7.71983e-08
0.000597014
-0.00138167
-0.00106651
0.000322931
-0.000539349
0.000860119
-0.000537188
0.000539696
0.0013039
-0.000764207
0.00111335
-0.00026832
0.00156931
-0.00183763
0.000502796
-0.000298147
-0.00139347
0.000629267
0.000139222
-0.000311153
-0.000400127
4.44159e-05
-0.00012133
-0.000266737
0.000330738
-0.000730865
0.00117541
-0.000844676
0.000638226
-0.000755247
0.00207189
-0.00144262
0.00023426
0.00130768
-0.00107342
0.00100953
0.000357848
0.00101642
-0.00177167
-0.000426202
-6.03407e-05
0.000229954
-0.000290294
-3.67829e-05
-0.000767648
-6.79702e-05
-0.000699677
0.00136954
-0.00143751
0.000524859
-0.00124681
0.00142295
-0.00184916
0.000349537
0.000883968
-0.000534431
-0.00124182
0.000753458
-0.00137309
0.00105478
-0.00061963
0.000981878
-0.00222869
-0.000867279
0.000859465
0.000804494
0.00177709
-0.000410538
0.000994727
-0.00148451
0.00135134
-0.000429729
-0.00115578
0.000745243
-0.000786296
-0.00131583
0.00137218
3.55108e-05
-0.00128546
0.000499169
-0.00106842
0.000303751
-0.00019311
0.000132001
-0.000325111
-0.000567676
0.000278675
-0.000846351
-0.00115883
0.000196884
-0.00135572
-0.0020318
0.00113258
-0.00199986
-0.000598152
-2.14785e-05
-0.000654835
0.000225106
-0.000676313
-3.45187e-05
-0.00199728
-0.00203438
-0.000896576
0.00170107
-0.000113692
0.000881035
0.000284955
0.00149213
0.00198603
0.00166276
-1.78221e-05
0.000898857
-0.00100283
0.000985006
-0.000257585
-0.000567305
0.000602816
-0.0003422
-0.000955097
0.000697512
-0.000455928
-0.000783209
0.000327281
-0.000479458
0.000123358
-0.000251119
8.01446e-05
-0.000331263
-0.000766206
3.28111e-05
-0.000799017
-0.0013229
-0.000353791
-0.000969114
-0.00235107
0.000897564
-0.00123976
0.000221251
-0.00181313
-0.00143762
0.000197858
0.000924649
-0.00273778
-0.00142642
0.000547509
0.00143852
0.00144637
-0.00100301
0.00136891
0.000659746
0.00209826
0.00011098
0.00133539
0.00109599
6.02313e-05
0.00103575
0.000757744
0.000240922
0.000516821
0.000568203
0.000691561
-0.000746061
-0.000308141
9.04609e-06
-0.000317187
-0.000789971
-0.000349419
-0.000440552
-0.00131853
-0.000425343
-0.000893189
-0.00185177
0.00201798
-0.00182012
-0.000719803
0.0017339
-0.00247996
-8.62201e-05
0.00128466
-0.00200446
-0.000567112
-0.000610586
0.000856438
0.000758327
-0.00119888
0.00195721
0.000899378
0.00223476
0.0014199
0.000814864
0.00245566
0.00297248
-0.00063411
0.00204652
-0.00141241
0.00311407
-0.000141591
-0.000343117
0.000562348
-0.00112946
-9.43745e-05
-0.000248742
-0.000534927
-0.000119611
-0.000415316
-0.0010128
-0.000450453
0.00180816
0.000238362
-0.00172194
-0.000282519
-0.000722287
0.000960649
-0.000969341
-0.000160119
0.000645215
-0.000927735
-0.000324126
-0.00116399
0.000441699
-0.000320198
0.000530728
0.00053624
2.55052e-05
-0.000595931
0.000570426
-0.00113848
-0.000121504
0.000343894
-0.000222391
-0.000717435
-0.000689776
0.00122602
0.00126743
0.0020823
-0.000341004
-0.000797477
-0.00175342
0.00121295
0.000869344
0.00107136
-0.000682052
-0.000284647
0.000392225
-0.000552344
-0.00067072
0.000220267
-0.000278495
-0.00012552
-0.000159127
-0.000540835
-0.000320568
-0.00124792
0.000320183
-0.00028727
-0.000600857
0.000313587
-0.000159158
-0.000499287
-5.30568e-05
0.000823413
-0.00050323
-0.000666716
0.000507558
-9.62898e-05
0.000363053
-1.91591e-05
0.000266764
-0.000215919
0.00019676
1.689e-05
0.000142241
-0.000159131
-0.000199029
-0.00042142
-0.000254616
-0.000166803
-0.00011091
0.000258192
0.000419818
-0.000144792
0.00056461
0.00108122
0.000311629
-0.000566245
-0.000405806
-0.00120328
0.000469668
0.000611555
-0.00065696
-0.000546323
0.00133901
-2.18229e-05
0.000108444
0.000236369
0.000113234
-0.000272361
-1.09994e-05
-0.00046197
0.000183475
-0.000515027
-0.000100554
-0.000171807
-0.000421122
-0.000237647
0.000476764
3.0794e-05
-0.000790351
0.000287122
-0.00052632
1.12927e-05
-0.000239198
-0.000296094
0.000326888
-0.000341556
4.54619e-05
-7.47928e-05
-0.000234959
0.000160166
-3.81993e-05
-0.000129815
9.16157e-05
1.24256e-05
5.31058e-06
2.40494e-05
-2.936e-05
1.24824e-05
-2.35634e-05
4.76128e-05
6.86575e-05
-9.22209e-05
8.1083e-05
-4.58788e-05
-4.63421e-05
-0.000205009
-2.35647e-05
-5.79528e-06
-6.99068e-05
-1.76742e-05
-9.9942e-05
-0.000105067
-0.000266745
-0.000101675
-0.00016507
-0.000667921
-9.28477e-05
0.000329217
0.000471763
0.00108332
-0.000434759
-0.000233162
0.000981082
0.000102235
1.73843e-05
2.6557e-05
0.000125828
4.45175e-05
8.13103e-05
0.000373735
5.37147e-05
-0.000225522
1.32756e-05
-7.29859e-05
-0.000152536
-0.000310633
-0.000299341
-0.000232443
-6.68977e-05
-0.000471641
-0.000144752
0.000188998
-2.88321e-05
-0.00023446
8.9708e-05
5.25322e-05
2.85509e-05
0.000144148
0.000115316
4.02933e-05
7.31952e-06
6.88442e-05
1.74176e-05
-4.77673e-05
-2.21395e-05
-0.000152835
-2.21741e-05
4.49989e-06
-4.43135e-05
-3.18723e-06
1.41804e-05
6.87435e-07
4.07374e-05
-0.000100225
-5.26091e-05
-0.000265295
-0.000144397
-0.000120899
-0.000377558
0.000333884
3.98502e-05
0.00043612
5.85612e-05
7.66944e-06
3.30679e-05
8.89797e-05
0.00012883
9.55509e-05
-2.67068e-05
0.000210867
-0.000233677
8.1141e-05
-0.000300575
-1.83709e-05
-5.30412e-06
-7.46119e-06
8.14863e-06
-5.68088e-06
-3.87745e-05
-5.53907e-06
-9.13836e-05
-1.21693e-05
8.98207e-06
-1.77084e-05
5.51061e-06
9.94906e-06
-1.80042e-06
4.3017e-05
-7.17097e-05
-1.96739e-05
-0.000192608
-0.000134047
3.14917e-05
1.15253e-05
0.000160322
2.62745e-05
-7.27123e-06
5.47081e-06
4.60387e-06
-7.32941e-06
-1.07701e-06
-8.34824e-06
-7.05084e-07
-6.62432e-06
-3.15118e-06
-2.92656e-05
1.15573e-05
-4.89395e-05
-1.87284e-06
7.38345e-06
9.68442e-06
7.35257e-06
1.2271e-05
-6.80015e-06
2.37962e-05
3.08646e-05
-7.06838e-06
-5.71391e-05
8.1996e-06
-9.40234e-08
-8.25422e-06
-6.89418e-06
-2.23954e-06
-4.38477e-06
-1.04938e-05
-1.8608e-06
-6.24557e-06
1.96372e-06
7.7207e-06
1.01633e-05
-3.88877e-06
7.0333e-06
3.4638e-06
1.11845e-05
-1.33524e-06
-5.55894e-06
-8.40362e-06
-9.34782e-06
9.44198e-07
8.15486e-07
7.62373e-07
6.27092e-06
3.75845e-06
-7.10107e-06
-3.39269e-06
-1.266e-05
-4.2743e-06
-7.66698e-06
5.18042e-07
5.75288e-06
1.17025e-05
1.2518e-05
-1.13889e-05
-1.27115e-06
1.04447e-05
2.07336e-06
1.99441e-06
7.74729e-06
-6.5516e-06
-7.82275e-06
-8.05249e-06
5.97913e-06
)
;

boundaryField
{
    movingWall
    {
        type            calculated;
        value           uniform 0;
    }
    fixedWalls
    {
        type            calculated;
        value           uniform 0;
    }
    frontAndBack
    {
        type            empty;
        value           nonuniform List<scalar> 0();
    }
    defaultFaces
    {
        type            empty;
        value           nonuniform List<scalar> 0();
    }
}


// ************************************************************************* //
