/*--------------------------------*- C++ -*----------------------------------*\
  =========                 |
  \\      /  F ield         | OpenFOAM: The Open Source CFD Toolbox
   \\    /   O peration     | Website:  https://openfoam.org
    \\  /    A nd           | Version:  8
     \\/     M anipulation  |
\*---------------------------------------------------------------------------*/
FoamFile
{
    version     2.0;
    format      ascii;
    class       volVectorField;
    location    "0.035";
    object      U;
}
// * * * * * * * * * * * * * * * * * * * * * * * * * * * * * * * * * * * * * //

dimensions      [0 1 -1 0 0 0 0];

internalField   nonuniform List<vector> 
656
(
(0.743377 0.056532 -9.65388e-25)
(0.92789 0.0140695 1.86656e-24)
(0.954786 -0.00127339 0)
(-0.0910747 0.119001 2.3997e-23)
(0.556749 0.0977241 1.12091e-23)
(0.841232 0.000938947 0)
(-0.0571794 0.0672326 -4.93985e-23)
(-0.0145959 0.0188476 9.85018e-24)
(0.968211 -0.000150907 0)
(-0.0005055 0.138598 -2.37889e-24)
(-0.00305218 0.193121 -7.83746e-23)
(-0.117738 0.172059 0)
(0.376013 0.139831 1.00521e-23)
(0.714995 0.00930149 0)
(0.89093 0.00127152 -1.70605e-22)
(0.906425 0.000577848 4.77749e-23)
(0.00104036 0.082343 9.71654e-24)
(0.00137443 0.0267221 0)
(0.971809 -7.70889e-05 -3.43238e-23)
(0.913418 0.000291789 -1.43686e-22)
(-0.0123893 0.0928425 7.7135e-23)
(-0.00523441 0.0628551 0)
(-0.0239241 0.125063 1.33415e-24)
(-0.00790204 0.242519 1.54041e-22)
(-0.136116 0.223439 -1.67713e-22)
(0.210345 0.180411 -2.26574e-23)
(0.577629 0.0245722 0)
(0.800587 0.00636451 2.66354e-22)
(0.829233 0.0030137 -8.91313e-23)
(-0.00144238 0.0356565 0)
(-0.000151522 0.0114428 0)
(0.916637 0.000152572 5.13498e-23)
(0.973298 -4.81829e-05 -3.66537e-23)
(0.842519 0.0015951 1.95772e-22)
(0.848798 0.00079138 -5.1812e-23)
(0.853297 5.55612e-05 -1.08935e-22)
(-0.00677717 0.0608668 -1.05431e-22)
(-0.00280611 0.0409119 1.7078e-23)
(-0.0137871 0.0824681 -1.88414e-22)
(-0.0408519 0.158482 -1.5775e-22)
(-0.0167223 0.282773 1.66553e-22)
(-0.143745 0.269537 -4.78766e-24)
(0.0686404 0.217894 4.55111e-22)
(0.433107 0.0473791 0)
(0.696379 0.0162005 0)
(0.738982 0.00798122 -3.6972e-22)
(-0.000821433 0.0230226 -5.40474e-24)
(-0.000128845 0.00732178 0)
(0.854215 -0.000877027 1.20238e-22)
(0.919044 2.63119e-05 -2.78261e-23)
(0.973898 -2.12863e-05 4.9302e-24)
(0.759105 0.00430204 0)
(0.768823 0.00213985 0)
(0.775739 0.000131997 -1.06715e-22)
(0.777287 -0.00235953 4.60025e-22)
(0.762693 -0.00599876 0)
(-0.0103697 0.036595 2.00248e-22)
(-0.00501951 0.0257394 2.95297e-22)
(-0.00202771 0.0165203 -2.87673e-22)
(-0.0250162 0.104733 -1.85352e-22)
(-0.0193327 0.04891 5.85073e-22)
(0.286693 0.0795998 -1.32798e-22)
(0.57821 0.0319197 1.75091e-22)
(0.634643 0.0164869 -5.20668e-22)
(-0.000553676 0.00885069 4.54004e-23)
(-6.72899e-05 0.00256322 6.09396e-23)
(0.844249 -0.00222325 -2.54865e-22)
(0.919596 -0.000143991 8.55076e-23)
(0.974557 1.2643e-05 5.48312e-24)
(0.726161 -0.0151445 -1.16326e-23)
(0.661779 0.00901122 0)
(0.675166 0.00457226 1.93355e-22)
(0.684874 0.000344152 2.04222e-22)
(0.687456 -0.00479108 -8.8294e-22)
(0.668413 -0.0124561 2.27458e-22)
(-0.00839554 0.0139401 8.88971e-22)
(-0.00405282 0.00914779 -6.79888e-24)
(-0.00182752 0.00551515 0)
(-0.000643723 0.00296111 1.05834e-22)
(0.447433 0.0557005 0)
(0.516223 0.0301979 6.6597e-22)
(-8.95952e-05 0.00127832 -1.00195e-22)
(5.52304e-05 0.000242894 -3.08814e-23)
(0.604427 -0.0240488 4.72072e-22)
(0.819872 -0.00590446 1.49765e-22)
(0.914149 -0.000368962 0)
(0.974904 4.26792e-05 -5.28722e-23)
(0.619109 -0.0301211 -2.88977e-22)
(0.467684 -0.0471497 7.26473e-22)
(0.251307 -0.190699 -8.79416e-22)
(0.549652 0.0168812 0)
(0.566494 0.00857814 4.66545e-23)
(0.579298 0.000913629 -1.45268e-22)
(0.583586 -0.00867933 5.12227e-22)
(0.560885 -0.0230255 -8.70297e-22)
(-0.0147987 0.00626025 3.74049e-22)
(-0.00926023 0.00306678 -3.99125e-22)
(-0.00538566 0.00139864 -1.97855e-22)
(-0.00280727 0.000480923 3.91626e-22)
(-0.00117252 4.42313e-05 4.71626e-23)
(-0.000205146 -6.18559e-05 -2.85173e-23)
(-0.136781 -0.250094 5.90108e-23)
(0.411837 -0.14794 -6.14034e-23)
(0.732554 -0.00900086 -7.96221e-22)
(0.900979 -0.0011191 0)
(0.973644 0.000110679 0)
(0.498569 -0.0537452 5.52452e-22)
(0.324794 -0.0808383 -2.77537e-22)
(0.106029 -0.229915 1.02618e-22)
(-0.141519 -0.297964 1.38446e-21)
(-0.0465411 0.0112257 0)
(-0.0340056 0.00582763 1.87033e-22)
(-0.0235893 0.0028535 -6.60581e-22)
(-0.0149914 0.00114435 1.84207e-22)
(-0.0079314 0.000288069 -4.38922e-23)
(-0.00212989 2.22985e-05 -2.72511e-23)
(-0.0076218 -0.288506 0)
(-0.120689 -0.19484 0)
(0.582855 -0.103394 4.88343e-22)
(0.850271 -0.000875663 -3.99761e-23)
(0.970547 0.000203528 -1.03106e-22)
(-0.0157142 -0.332217 -1.64672e-21)
(-0.07582 0.00995173 0)
(-0.0567437 0.00549855 1.93373e-22)
(-0.0402972 0.00275086 -1.4351e-24)
(-0.0262261 0.00116742 9.56131e-23)
(-0.014252 0.000359718 -4.49324e-23)
(-0.00411185 7.2094e-05 0)
(-0.0276792 -0.16343 -5.51271e-22)
(-0.00299724 -0.232861 0)
(-0.0950052 -0.136162 5.08343e-22)
(0.757863 -0.059774 0)
(0.956524 0.00135183 7.6466e-23)
(-0.0467818 -0.203979 0)
(-0.0977051 0.00820686 0)
(-0.0739005 0.00456619 1.20249e-22)
(-0.052998 0.00232391 -3.48648e-22)
(-0.0348332 0.00102043 1.12815e-22)
(-0.0191839 0.00034369 5.04146e-23)
(-0.00576877 8.90859e-05 -1.69e-23)
(-0.0156433 -0.118042 2.82646e-22)
(-0.0145672 -0.122749 0)
(-0.000263011 -0.168982 -4.45542e-22)
(-0.0605241 -0.077594 4.30443e-22)
(0.93139 -0.0147229 0)
(-0.0284049 -0.147304 0)
(-0.106441 0.00713819 1.5338e-22)
(-0.0805943 0.0040334 -1.48073e-22)
(-0.0578866 0.00205223 1.43283e-22)
(-0.0381164 0.000895922 -2.74321e-22)
(-0.0210628 0.000302136 3.77254e-22)
(-0.00647721 7.8472e-05 -5.02997e-23)
(-0.0132723 -0.0670075 2.43848e-22)
(-0.00771499 -0.088389 -5.22175e-22)
(-0.0059765 -0.0836732 1.52087e-22)
(0.00180671 -0.100646 -4.62006e-22)
(-0.0141877 -0.0213997 1.31e-23)
(-0.0239532 -0.0857339 0)
(-0.0152515 -0.0445601 -5.50076e-23)
(-0.10724 0.00767926 -1.88859e-22)
(-0.0810964 0.004856 7.61318e-22)
(-0.058325 0.00260852 -7.26908e-22)
(-0.0385379 0.00112567 0)
(-0.0213852 0.000347837 0)
(-0.0066734 7.23431e-05 -5.51823e-24)
(-0.00838104 -0.0345891 1.17305e-22)
(-0.00662731 -0.0491798 3.42142e-24)
(-0.00302941 -0.0600764 3.98071e-22)
(-0.00126182 -0.047353 -1.49556e-22)
(0.00233677 -0.0309931 0)
(-0.00856708 -0.01942 8.91448e-22)
(-0.0627959 0.00401257 8.30361e-22)
(-0.0411387 0.00253035 -8.58643e-22)
(-0.0226146 0.000896098 0)
(-0.00696112 0.000156351 -7.77984e-24)
(-0.00471364 -0.0144867 -2.36386e-22)
(-0.0041325 -0.025136 -9.17175e-23)
(-0.00271418 -0.0328895 1.89101e-22)
(-0.000643565 -0.0339938 -1.29372e-22)
(0.00018172 -0.0143032 4.94368e-23)
(-0.00437002 -0.00538391 0)
(-0.00263617 0.00322872 -1.02318e-21)
(-0.0500457 0.00114152 0)
(-0.0175226 0.000386027 -2.71952e-23)
(-0.00149499 0.00054054 0)
(-0.00232646 -0.00370033 -2.40591e-22)
(-0.00229974 -0.0101433 -4.59459e-22)
(-0.00169855 -0.0166368 -6.2518e-23)
(-0.000720316 -0.0184044 1.27201e-22)
(7.5996e-05 -0.0105754 -4.96272e-23)
(-0.00104615 -0.000736014 2.08677e-21)
(-0.00127176 0.00158633 2.17714e-21)
(-0.00304453 0.00364766 7.01383e-23)
(-0.000156818 0.00175664 -4.81374e-22)
(-0.000736792 0.000828003 -9.4083e-25)
(-0.00109279 -0.00234555 1.24605e-22)
(-0.000939783 -0.00648415 3.72145e-22)
(-0.000477539 -0.00922811 7.62587e-24)
(-6.54103e-05 -0.00577016 -2.28032e-23)
(-0.000146537 -0.00234265 -1.82343e-24)
(-0.00043765 -0.00126885 -1.74577e-21)
(-0.000532579 0.00071491 -5.26453e-22)
(-0.00133347 0.00156257 0)
(-0.00314323 0.00897193 1.51463e-21)
(0.000346559 0.00136706 -2.58714e-22)
(-2.06655e-05 0.00157686 2.56495e-22)
(-0.000310065 0.000888431 1.28409e-22)
(-0.000430423 -0.00133597 0)
(-0.000266866 -0.00348043 -1.21974e-22)
(-6.3854e-05 -0.00289592 1.71358e-23)
(0.000210718 -0.00259624 8.27181e-22)
(1.09633e-05 -0.00222886 3.33626e-22)
(-0.000155953 -0.00134971 1.96583e-22)
(-0.000168655 0.000221866 5.35514e-23)
(-0.000327783 0.000542465 -6.13853e-23)
(-0.000451907 0.00207266 1.09048e-21)
(0.000282812 0.000488938 1.08122e-21)
(0.000224393 0.00115839 -4.04693e-22)
(1.90139e-05 0.00129143 -2.63965e-22)
(-0.000105828 0.000765065 -1.28481e-22)
(-0.000113421 -0.000626738 0)
(-3.89278e-05 -0.00105532 -1.12785e-23)
(0.000488802 -0.00189862 0)
(0.000172352 -0.0022246 -2.86196e-22)
(4.47137e-05 -0.00186549 -9.86071e-22)
(-3.58745e-05 -0.00113483 3.21282e-22)
(-2.124e-05 -1.00307e-05 -3.57873e-22)
(-1.20178e-05 1.35363e-05 9.64552e-24)
(0.000487753 0.000175115 -4.69721e-22)
(0.000157776 0.00036769 7.16086e-22)
(0.000127223 0.00090048 -6.92867e-22)
(2.1818e-05 0.000940189 1.32341e-22)
(-1.72743e-05 0.000515203 0)
(-1.0843e-05 -0.000156561 1.11518e-23)
(0.000361653 -0.000649557 0)
(0.000294763 -0.00157166 5.50248e-22)
(0.000107987 -0.00174256 7.1622e-22)
(3.62046e-05 -0.00136787 9.39284e-22)
(8.25256e-06 -0.000744552 -3.33576e-22)
(9.64231e-06 -4.84872e-05 -2.20272e-23)
(0.0010935 0.000251762 -5.60752e-22)
(0.000349638 9.56338e-05 0)
(7.73764e-05 0.000253669 5.14243e-22)
(5.96639e-05 0.000626092 0)
(1.5012e-05 0.000560624 0)
(5.88454e-06 0.000189404 0)
(0.000668711 -0.000215699 6.27027e-22)
(0.00019608 -0.000490874 -5.69138e-22)
(0.000157634 -0.00119719 -5.59908e-22)
(5.50003e-05 -0.00121971 -4.17949e-22)
(2.30044e-05 -0.000816611 -4.3458e-22)
(1.28714e-05 -0.00026425 1.31112e-23)
(0.00152711 0.000133682 0)
(0.000876422 0.000145057 1.40537e-22)
(0.000232462 4.734e-05 0)
(3.00448e-05 0.00015626 2.00019e-27)
(2.04754e-05 0.000356774 0)
(8.29439e-06 0.000180315 -8.97886e-23)
(0.00166754 -2.03181e-05 0)
(0.00143705 -0.000232806 -5.65915e-22)
(0.00048856 -0.000121843 -1.57929e-22)
(9.30596e-05 -0.000338935 2.91797e-22)
(7.09153e-05 -0.000817906 -4.14879e-22)
(2.33564e-05 -0.00070085 -1.31428e-22)
(1.18874e-05 -0.000263541 9.15314e-23)
(0.00123114 7.57257e-05 -1.88736e-23)
(0.000654988 7.53498e-05 -2.10176e-22)
(0.000139911 1.85072e-05 0)
(5.97911e-06 7.80349e-05 -1.08191e-22)
(5.30471e-06 0.000104752 9.05776e-23)
(0.00134228 -1.4301e-05 2.09855e-24)
(0.00115037 -0.000137785 6.35543e-22)
(0.000331507 -6.11868e-05 -4.81925e-27)
(3.54822e-05 -0.000209249 1.32439e-25)
(2.32118e-05 -0.000458206 -2.65227e-22)
(9.14872e-06 -0.000212451 8.3611e-23)
(0.000928948 3.91822e-05 1.48551e-22)
(0.000443744 3.33776e-05 1.02531e-22)
(6.93024e-05 3.6457e-06 -1.2613e-22)
(-1.04498e-06 1.81416e-05 2.30012e-23)
(0.00101251 -8.73411e-06 2.09403e-24)
(0.000861676 -7.40524e-05 -1.40573e-22)
(0.000203963 -2.43378e-05 4.54046e-22)
(6.90241e-06 -0.000104974 -2.12717e-22)
(5.7644e-06 -0.000130203 3.37788e-26)
(0.000637138 1.75119e-05 0)
(0.000249927 1.10865e-05 1.13797e-22)
(1.65478e-05 -9.49343e-07 7.96592e-23)
(0.000694799 -4.87774e-06 0)
(0.000585905 -3.39979e-05 -2.05644e-22)
(0.00010343 -5.06373e-06 3.95815e-22)
(-1.27531e-06 -2.44972e-05 4.39553e-23)
(0.000365437 6.03445e-06 -9.70807e-25)
(7.63571e-05 2.67637e-06 -1.42995e-22)
(0.000398937 -2.48479e-06 9.69545e-25)
(0.00033154 -1.2e-05 -1.14003e-22)
(2.55422e-05 1.03526e-06 1.12907e-22)
(0.000118599 1.55485e-06 4.33747e-23)
(0.000129715 -1.15881e-06 0)
(0.000102064 -3.39927e-06 -1.09938e-23)
(-0.14282 0.303985 2.22419e-21)
(-0.0269859 0.258873 5.09729e-22)
(-0.0419004 0.12818 0)
(-0.0753753 0.189326 2.78728e-21)
(-0.0629195 0.194077 -2.94546e-21)
(-0.0730694 0.268053 0)
(-0.0373819 0.310989 0)
(-0.0980919 0.353087 -1.02594e-21)
(-0.0850359 0.314022 0)
(-0.0389287 0.266461 -1.88521e-21)
(0.151994 0.126576 4.23713e-21)
(-0.0955712 0.278563 0)
(-0.0337786 0.0636343 -3.65898e-22)
(-0.0560188 0.105099 0)
(-0.0161944 0.0192605 -3.82045e-21)
(-0.0385533 0.0469326 3.90962e-21)
(-0.083068 0.121473 -2.2716e-21)
(-0.114686 0.159053 0)
(-0.0953707 0.203183 0)
(-0.119105 0.23985 6.1855e-22)
(-0.108934 0.295203 0)
(-0.0976777 0.289287 1.95876e-21)
(-0.0156215 0.194177 2.3698e-21)
(0.0943763 0.155286 -5.71749e-21)
(0.302351 0.091014 1.12319e-21)
(-0.149984 0.234744 -5.90203e-22)
(-0.140732 0.251964 0)
(-0.0215652 0.0120557 -3.1611e-21)
(-0.0491407 0.0286034 8.65904e-22)
(-0.0606932 0.0520673 7.20864e-22)
(-0.0912264 0.0816811 2.30972e-21)
(-0.121293 0.0804164 -4.44841e-21)
(-0.167166 0.114998 -3.93562e-21)
(-0.159218 0.156412 -3.00805e-21)
(-0.184381 0.184833 5.63442e-21)
(-0.131273 0.208134 -1.64195e-21)
(-0.0604859 0.183581 -1.71399e-21)
(0.0425199 0.127975 0)
(0.386593 0.0501568 -5.74611e-21)
(0.189665 0.106096 0)
(0.42251 0.0294883 0)
(0.242454 0.0589111 4.83604e-21)
(-0.20671 0.172007 0)
(-0.179102 0.179003 0)
(-0.0111742 -0.277131 6.0393e-21)
(-0.146321 -0.330041 0)
(0.385135 -0.0831947 0)
(0.434572 0.014537 -1.97074e-22)
(0.271593 0.0336537 0)
(0.267498 -0.0939439 0)
(0.454483 -0.0374063 1.18411e-21)
(0.456068 0.00166686 3.69842e-21)
(0.293943 0.00827772 0)
(0.317408 -0.043987 0)
(0.471494 -0.0152069 0)
(0.322262 -0.0149272 -3.75527e-21)
(-0.0638733 0.0224811 1.15045e-21)
(-0.09722 0.0358888 -1.44682e-21)
(-0.120246 0.0483945 4.75833e-21)
(-0.172986 0.0544408 0)
(-0.201748 0.0845518 0)
(-0.230983 0.0947055 -3.1072e-21)
(-0.24905 0.1191 -2.36426e-21)
(-0.152888 0.138158 0)
(0.0661695 0.0797284 3.34784e-21)
(-0.0362886 0.117176 0)
(0.149848 0.0429211 0)
(0.00322527 0.0673369 -3.62049e-21)
(-0.266494 0.105159 7.85236e-21)
(-0.228832 0.112008 -2.32014e-21)
(-0.0119697 -0.263727 -3.40824e-21)
(0.171404 -0.137383 7.67319e-21)
(0.145943 -0.156531 -6.00542e-21)
(-0.115237 -0.386337 1.70524e-21)
(-0.077935 -0.328264 -3.71189e-21)
(-0.0364916 -0.359489 2.43808e-22)
(0.046311 -0.182924 -6.36582e-21)
(0.0492851 -0.153031 2.08703e-21)
(0.147447 -0.109474 3.22936e-21)
(0.131139 0.00961779 0)
(0.0234489 0.0373035 0)
(0.083808 -0.0936653 -3.559e-21)
(0.186609 -0.0569215 0)
(0.0980104 -0.0460523 -3.31848e-21)
(0.197467 -0.021128 3.02621e-21)
(0.0585347 -0.0100758 4.61246e-21)
(-0.0970378 0.0160568 1.65464e-21)
(-0.140627 0.0246769 0)
(-0.167609 0.0340519 0)
(-0.212637 0.0396554 3.28711e-21)
(-0.244062 0.058154 0)
(-0.272968 0.0589988 8.27006e-21)
(-0.29329 0.0747911 -7.0668e-21)
(-0.110049 0.0531654 0)
(-0.133248 0.067856 -5.67941e-21)
(-0.223074 0.0859736 1.1569e-20)
(-0.196259 0.0389482 0)
(-0.291866 0.0737488 -7.47793e-21)
(-0.304854 0.0677675 -3.9893e-21)
(-0.0867976 -0.31387 0)
(-0.0719676 -0.24728 7.73001e-21)
(-0.0721251 -0.24234 0)
(-0.0644147 -0.321745 -5.27698e-22)
(-0.0906906 -0.324494 4.1445e-22)
(-0.103669 -0.240906 -7.93889e-21)
(-0.0622591 -0.18741 -7.29434e-21)
(-0.0923958 -0.161482 9.69989e-21)
(-0.0396321 -0.115265 2.99269e-21)
(-0.106064 -0.0826765 -3.92015e-21)
(-0.0528934 -0.0524487 0)
(-0.0798081 -0.0182221 -3.18835e-21)
(-0.173737 0.0101235 0)
(-0.122959 0.0130454 0)
(-0.16696 0.0195681 -1.28275e-21)
(-0.197098 0.0253116 -5.02557e-21)
(-0.231123 0.0315012 4.31021e-21)
(-0.259663 0.0419778 -1.53362e-21)
(-0.277838 0.0439589 -1.96861e-21)
(-0.305631 0.0555493 6.23229e-21)
(-0.277362 0.0454653 -6.95238e-21)
(-0.300261 0.060326 8.4765e-21)
(-0.264137 0.0147543 0)
(-0.29787 0.0384335 -1.19093e-21)
(-0.319216 0.0602855 0)
(-0.312239 0.0551753 0)
(-0.0467577 -0.172686 -1.2373e-20)
(-0.0896471 -0.247142 4.26797e-21)
(-0.110216 -0.256846 5.15653e-21)
(-0.122537 -0.286676 -7.10734e-22)
(-0.13887 -0.257377 6.55695e-22)
(-0.173176 -0.207935 -7.46789e-21)
(-0.176221 -0.168862 0)
(-0.196754 -0.111755 -9.33586e-21)
(-0.27938 0.0170262 -4.39384e-21)
(-0.237751 -0.0812283 6.79204e-21)
(-0.273641 -0.0186726 2.80266e-21)
(-0.134745 0.0114096 4.52384e-21)
(-0.292308 0.0518303 2.69994e-21)
(-0.172376 0.0176251 -3.23205e-21)
(-0.19763 0.0228979 -2.79791e-21)
(-0.224606 0.0307265 -6.05964e-21)
(-0.259553 0.0389563 1.35586e-21)
(-0.268713 0.0430156 -3.43512e-21)
(-0.291993 0.0446801 -2.70027e-21)
(-0.315937 0.0591721 6.73235e-22)
(-0.31129 0.0500406 1.23337e-21)
(-0.272178 0.057626 4.81884e-21)
(-0.288644 0.0555644 1.99805e-21)
(-0.299341 0.0629437 -1.28009e-21)
(-0.291502 0.0597091 -1.92e-21)
(-0.239664 0.0631052 -6.67774e-21)
(-0.0386896 -0.103687 0)
(-0.0623404 -0.164034 8.28e-21)
(-0.180586 0.0647951 0)
(-0.218755 0.054323 4.3778e-21)
(-0.118867 0.0604005 8.47438e-21)
(-0.14435 0.0570478 -5.59583e-21)
(-0.0857937 -0.179169 0)
(-0.125238 -0.218889 -4.90181e-21)
(-0.162386 -0.196232 1.50053e-20)
(-0.216854 0.0278311 -5.83705e-21)
(-0.243225 0.00825048 4.62107e-21)
(-0.178979 -0.15519 -1.07017e-20)
(-0.229594 -0.0760065 1.13821e-22)
(-0.220678 -0.0469191 -9.42736e-21)
(-0.134794 0.011562 0)
(-0.263795 0.0516952 0)
(-0.243037 0.0388055 2.59935e-22)
(-0.248458 0.0454122 -3.54776e-22)
(-0.167885 0.0197549 -5.02947e-21)
(-0.195699 0.0258749 5.34867e-21)
(-0.213839 0.0308462 4.6401e-21)
(-0.282078 0.0685621 1.83173e-21)
(-0.274107 0.0681305 -4.17049e-22)
(-0.244649 0.075803 3.63436e-21)
(-0.225539 0.0748845 1.32597e-21)
(-0.256677 0.0560901 -5.47977e-21)
(-0.262112 0.0704078 1.99906e-23)
(-0.268926 0.0624948 4.67893e-21)
(-0.198885 0.0805164 2.29939e-21)
(-0.174135 0.0789022 -7.50179e-21)
(-0.118042 0.0718688 2.88215e-21)
(-0.143022 0.0791428 2.38134e-21)
(-0.0942135 0.0696666 -3.36621e-21)
(-0.0565654 0.0515425 0)
(-0.0746594 0.0579484 2.7968e-21)
(-0.0903044 0.0537745 -2.39947e-22)
(-0.081914 0.0462251 0)
(-0.0245837 -0.0538941 -4.19817e-21)
(-0.04856 -0.0935744 4.10743e-21)
(-0.0588543 -0.100972 2.88801e-21)
(-0.0943767 -0.136205 0)
(-0.105779 0.0311831 1.02025e-20)
(-0.138896 0.0335412 0)
(-0.166467 0.0184449 5.66219e-21)
(-0.120212 -0.114553 1.30666e-22)
(-0.150435 -0.0263576 1.53367e-21)
(-0.15028 -0.122426 -4.22041e-21)
(-0.178083 -0.055249 8.46759e-21)
(-0.0136645 -0.0248678 -4.96359e-22)
(-0.0250912 -0.0424183 0)
(-0.124954 0.0105762 0)
(-0.0843895 0.00374223 -5.15395e-22)
(-0.102028 0.00490441 5.19548e-22)
(-0.221615 0.043332 -3.01132e-21)
(-0.232091 0.0532035 2.64759e-21)
(-0.148723 0.0162918 0)
(-0.183206 0.0251528 -2.45941e-21)
(-0.199185 0.0344956 2.96184e-21)
(-0.196763 0.0848345 1.24125e-21)
(-0.23664 0.0752563 -2.01869e-21)
(-0.230111 0.0801487 -2.56125e-21)
(-0.216383 0.0591194 -3.41186e-21)
(-0.216628 0.0703221 6.76475e-22)
(-0.174135 0.0827882 0)
(-0.146128 0.0829027 0)
(-0.132712 0.0813436 0)
(-0.105531 0.0780107 -2.97413e-21)
(-0.0861493 0.0715255 -1.67448e-21)
(-0.0663835 0.0650247 3.98703e-21)
(-0.0496808 0.0533141 0)
(-0.00764899 0.014315 0)
(-0.00489525 0.00947867 -6.67124e-22)
(-0.0139999 0.0255557 3.59378e-21)
(-0.0224436 0.0344704 -3.15037e-21)
(-0.0357257 0.0463467 0)
(-0.0253611 0.032382 -5.85215e-21)
(-0.0386218 0.0396504 3.68682e-23)
(-0.0105148 0.015247 0)
(-0.0143812 0.0199098 -4.59625e-21)
(-0.00480764 0.00587135 0)
(-0.0408242 0.034924 1.32008e-23)
(-0.0585651 0.0394785 2.01098e-23)
(-0.0576898 0.0299934 3.55441e-21)
(-0.0906943 0.0255506 -4.32491e-21)
(-0.0356764 -0.0471582 8.81454e-21)
(-0.0594381 -0.065793 -1.85522e-20)
(-0.0868469 -0.0659233 3.95205e-21)
(-0.0860022 0.0089593 -2.27964e-21)
(-0.0949084 -0.037191 8.37791e-21)
(-0.115176 -0.0220962 -5.88613e-21)
(-0.00673576 -0.00719893 0)
(-0.0127718 -0.0154041 0)
(-0.0158105 -0.0166825 -3.64696e-21)
(-0.0315922 -0.0279445 -5.33454e-21)
(-0.00412695 0.0067163 5.64512e-22)
(-0.116648 0.0102093 1.25658e-21)
(-0.0691171 0.000767866 0)
(-0.0866615 0.00273348 -1.09942e-21)
(-0.145162 0.0288178 1.49417e-21)
(-0.171726 0.036896 -4.46445e-21)
(-0.187255 0.0541239 -8.0228e-23)
(-0.16042 0.0667735 4.05116e-21)
(-0.179416 0.0748254 -4.75407e-21)
(-0.166994 0.0801249 3.23414e-21)
(-0.0976739 0.0778209 -3.92844e-21)
(-0.126824 0.0768868 6.0747e-23)
(-0.124228 0.0814489 1.11116e-21)
(-0.0365415 0.0522481 4.04124e-21)
(-0.0557537 0.063443 -4.34943e-23)
(-0.0774854 0.0706235 1.95786e-21)
(-0.0109723 0.0268951 1.76475e-21)
(-0.0269174 0.0441362 -2.13834e-21)
(-0.00620622 0.0174522 -1.58619e-21)
(-0.016185 0.0183431 5.23112e-21)
(-0.0256158 0.0236958 0)
(-0.0048957 0.00507646 4.10977e-21)
(-0.00719427 0.00756829 -7.26348e-21)
(-0.00216386 0.000512264 0)
(-0.0021938 3.99227e-05 0)
(-0.00442251 -0.00241626 -1.15546e-21)
(-0.0261352 0.0192535 5.24e-21)
(-0.0403764 0.0215196 -1.54231e-23)
(-0.0402673 0.0141544 -1.07788e-20)
(-0.0618213 0.00755695 1.08817e-20)
(-0.038056 -0.0177151 3.8083e-21)
(-0.0531062 -0.017486 -3.09041e-21)
(-0.0467768 -0.00249713 -3.80751e-21)
(-0.00641004 -0.00331738 7.17213e-22)
(-0.0127835 -0.00725849 2.03372e-21)
(-0.0209224 -0.00668634 1.40875e-21)
(-0.00498946 0.0132138 -3.04788e-21)
(-0.0288344 0.0487883 0)
(-0.0607854 0.06297 0)
(-0.0920433 0.0355243 3.94765e-21)
(-0.1075 0.0545532 -2.76805e-21)
(-0.0997613 0.0661562 0)
(-0.0220059 0.0025678 3.06827e-23)
(-0.0618955 0.0146158 0)
(-0.00987355 0.030467 -1.03511e-22)
(-0.000863546 0.00143277 -6.08598e-22)
(-0.000256278 0.00178428 2.99346e-21)
(-0.00903478 0.00702122 7.4957e-21)
(-0.0143291 0.0106262 0)
(-0.00151589 -0.00050685 -3.39698e-21)
(-0.00335205 0.000926875 -1.07834e-20)
(-0.000486971 -0.00203391 5.95334e-21)
(-0.00141609 0.00113971 4.21803e-22)
(-0.00528473 -0.000974037 0)
(-0.0154784 0.00613508 0)
(-0.0250961 0.00789718 0)
(-0.0275344 0.000567784 0)
(-0.00733036 -0.0008182 4.81264e-21)
(-0.0159089 -0.00300619 -4.11227e-21)
(-0.0181159 0.000586493 0)
(-0.00130042 0.00977736 0)
(-0.000505408 0.00137562 2.72215e-21)
(0.000506694 0.00149302 -6.82809e-21)
(0.00055072 0.00172084 1.18853e-20)
(0.000507199 0.00153252 -7.18305e-21)
(0.000781028 0.00110009 -2.33843e-21)
(0.000423138 0.00057638 0)
(-0.00307293 0.000219726 3.51754e-21)
(-0.00653921 0.00156794 0)
(0.000121311 -0.00261164 0)
(-0.000261342 -0.00209764 0)
(0.000197234 -0.00275134 -1.29435e-21)
(-0.000898974 0.000872898 2.23557e-21)
(-0.00313604 0.000618055 0)
(-0.00247978 0.000419979 6.76717e-21)
(-0.00458951 0.000888455 1.78977e-21)
(-0.00592378 0.00153815 -6.74936e-21)
(0.000987155 0.00125718 0)
(0.000570325 0.00110973 5.27844e-21)
(0.00110526 0.000950589 8.56095e-21)
(0.00130319 0.00109908 -9.71027e-21)
(0.00061276 0.000311774 -1.74297e-22)
(0.00109687 0.000586433 7.23186e-21)
(0.000653791 -0.00200748 1.4526e-21)
(6.28642e-05 -0.00106488 -1.08927e-21)
(0.000686966 -0.00210403 -8.36418e-21)
(0.00086576 -0.00243742 1.1429e-20)
(0.0010729 -0.00226985 0)
(0.00107045 0.000839218 -5.35732e-21)
(0.000311239 0.000805069 -7.84167e-21)
(0.00143486 4.88665e-05 1.16262e-20)
(0.00134291 -0.000842976 0)
(0.000984132 -0.00135195 0)
(0.000538487 -0.000756467 4.45924e-21)
(0.00173167 0.000750994 3.35685e-21)
(0.00181691 0.000719122 -5.95397e-21)
(0.00130049 0.000411695 -1.30433e-22)
(0.00170237 0.000538187 1.7534e-24)
(0.00144037 -0.00121248 0)
(0.00176195 -0.0014526 1.9501e-21)
(0.00197024 -0.000950881 -1.68469e-21)
(0.00226384 0.000256929 -4.07025e-24)
(0.00220322 -0.000473087 7.99683e-22)
(0.00217655 -8.84612e-05 6.32126e-21)
(0.000816747 -0.000356697 -5.91092e-21)
(0.00147183 -0.000686687 0)
(0.0018181 0.000229182 -8.8298e-21)
(0.00219109 0.00018844 4.20972e-21)
(0.00199431 -2.49891e-05 4.48275e-21)
(0.00173371 -0.000388675 0)
(0.0020884 -0.000398694 -4.91124e-21)
)
;

boundaryField
{
    movingWall
    {
        type            fixedValue;
        value           uniform (1 0 0);
    }
    fixedWalls
    {
        type            noSlip;
    }
    frontAndBack
    {
        type            empty;
    }
    defaultFaces
    {
        type            empty;
    }
}


// ************************************************************************* //
