/*--------------------------------*- C++ -*----------------------------------*\
  =========                 |
  \\      /  F ield         | OpenFOAM: The Open Source CFD Toolbox
   \\    /   O peration     | Website:  https://openfoam.org
    \\  /    A nd           | Version:  8
     \\/     M anipulation  |
\*---------------------------------------------------------------------------*/
FoamFile
{
    version     2.0;
    format      ascii;
    class       volScalarField;
    location    "15000";
    object      k;
}
// * * * * * * * * * * * * * * * * * * * * * * * * * * * * * * * * * * * * * //

dimensions      [0 2 -2 0 0 0 0];

internalField   nonuniform List<scalar> 
4109
(
0.0294943
0.031043
0.0297417
0.0310131
0.0317424
0.0314662
0.0319627
0.030149
0.0330109
0.0325452
0.0325709
0.0333187
0.0298539
0.0316906
0.0324089
0.0337109
0.0334959
0.03351
0.0338681
0.0325537
0.0298961
0.0313772
0.0314084
0.0345923
0.0346237
0.0350342
0.0295903
0.0316266
0.0298774
0.0348557
0.0335083
0.0328099
0.0313515
0.0312918
0.0322218
0.0351654
0.0350532
0.0361743
0.0318921
0.0298494
0.0315745
0.0317703
0.0302765
0.0355139
0.0341217
0.0955006
0.0476977
0.0334849
0.0329026
0.0312278
0.0322423
0.0358539
0.0366372
0.0379046
0.0336107
0.0317953
0.0293667
0.0318969
0.0323664
0.0331429
0.0328781
0.121503
0.0367272
0.0351031
0.0344442
0.0413688
0.0870572
0.0337479
0.0327674
0.032478
0.0393814
0.0373379
0.0425474
0.0413715
0.0411864
0.0341542
0.0340534
0.0326713
0.0311606
0.0328946
0.0325822
0.0329289
0.0334803
0.0336152
0.0384344
0.0452489
0.100137
0.131038
0.132408
0.0379105
0.0375049
0.0358032
0.0351128
0.0345493
0.0379189
0.0665855
0.033731
0.032553
0.0427003
0.0410166
0.0398859
0.0429949
0.043713
0.0432582
0.0434024
0.0352869
0.0347659
0.0339323
0.0321072
0.0341318
0.0388434
0.0333685
0.0338816
0.0341181
0.0346739
0.138191
0.0527398
0.0664465
0.0893295
0.140018
0.137568
0.0432817
0.0397092
0.0385823
0.036838
0.0361073
0.0354207
0.0344089
0.0669145
0.0343769
0.033823
0.043123
0.0417124
0.0448116
0.0440366
0.0455689
0.0443332
0.035968
0.0356529
0.0355745
0.0337214
0.0348151
0.0399895
0.0339471
0.0345554
0.0350241
0.0352688
0.124846
0.0734882
0.140776
0.0934787
0.143831
0.0504001
0.0405643
0.0394826
0.0376553
0.0368704
0.0361797
0.0354503
0.0343712
0.0614689
0.0330964
0.0426388
0.0412535
0.0456743
0.0437598
0.046447
0.0468461
0.0476455
0.037134
0.0366141
0.0363301
0.0345558
0.0358
0.0412135
0.0347743
0.0354559
0.0356977
0.0363704
0.0857402
0.156854
0.0884675
0.147535
0.147757
0.0511647
0.038783
0.0397309
0.0378945
0.0361464
0.0370806
0.0356197
0.0673079
0.0340212
0.0409557
0.0420216
0.0451887
0.0433404
0.0464316
0.0480914
0.0477229
0.0507254
0.0379034
0.0376174
0.0376499
0.0361745
0.0360477
0.0414338
0.035504
0.0361264
0.0367111
0.0370907
0.088307
0.158456
0.154124
0.0931489
0.157215
0.0507773
0.0388934
0.0400826
0.0375246
0.0364907
0.0688112
0.0349003
0.0411787
0.0424252
0.0445454
0.0436488
0.0459791
0.0480246
0.0491898
0.0511371
0.053491
0.0391802
0.0385745
0.0383983
0.0372313
0.0369124
0.0424613
0.0370112
0.0362537
0.0400884
0.0375824
0.0382753
0.0848958
0.166445
0.0967917
0.16154
0.163427
0.0516314
0.0392031
0.0399782
0.0378984
0.0722209
0.0353613
0.0415115
0.0424202
0.0449574
0.0439934
0.0463103
0.0473383
0.0495491
0.0514384
0.0529531
0.0570317
0.0401949
0.0393391
0.0387303
0.0410628
0.0372225
0.0428826
0.0374982
0.0414014
0.0391362
0.0387238
0.173586
0.0846209
0.168897
0.100559
0.173553
0.0522198
0.178178
0.0390003
0.0403526
0.0738833
0.0361638
0.0414869
0.0426744
0.0450577
0.0440034
0.0466197
0.0476818
0.0489256
0.0514043
0.0533722
0.0562288
0.0566063
0.0607034
0.0393253
0.0407661
0.0390696
0.0422313
0.042458
0.0379198
0.0437162
0.0391343
0.0404115
0.0397641
0.0849744
0.181518
0.175601
0.0991225
0.179869
0.0529393
0.192185
0.184677
0.201925
0.165711
0.185362
0.156429
0.0883347
0.0370751
0.0403178
0.0423367
0.0432173
0.0439445
0.0454341
0.0467571
0.0477076
0.0491797
0.0578432
0.0504672
0.0532129
0.0559857
0.0613238
0.0648614
0.0632742
0.0693733
0.0416364
0.0411542
0.0434469
0.0438745
0.0414032
0.039233
0.0452227
0.0398999
0.0409901
0.0874948
0.194267
0.181036
0.0528678
0.291805
0.259642
0.201859
0.172462
0.195364
0.221414
0.0754763
0.0759825
0.0811417
0.159978
0.149359
0.151417
0.148046
0.159317
0.150568
0.0387247
0.0452364
0.0452818
0.0459868
0.0606697
0.0470051
0.0479489
0.0493293
0.0507211
0.0577031
0.0522391
0.0552907
0.0651246
0.0617056
0.0681428
0.0678822
0.0765104
0.0808355
0.0429086
0.0436708
0.0450707
0.0450186
0.0427835
0.0421231
0.0402972
0.0449209
0.0414816
0.091516
0.218405
0.302446
0.258241
0.177273
0.194673
0.221846
0.0795141
0.0814118
0.0869646
0.0826626
0.085638
0.132775
0.139184
0.139541
0.147218
0.160072
0.240383
0.119263
0.0441226
0.0474642
0.0471608
0.0600608
0.0611583
0.0491738
0.0491161
0.0506094
0.0523905
0.05714
0.0540081
0.0657927
0.0637523
0.0692208
0.0721347
0.0768433
0.0786503
0.0456585
0.0449447
0.0423631
0.0475729
0.0465223
0.0439286
0.0434544
0.0497167
0.0429093
0.041791
0.0498503
0.0973065
0.294377
0.324317
0.260233
0.176716
0.19758
0.225335
0.0820357
0.0895074
0.0979474
0.087682
0.0919248
0.122685
0.10927
0.0871524
0.0904033
0.129305
0.137202
0.147586
0.158635
0.257665
0.211409
0.0650521
0.0491776
0.0496754
0.0593154
0.0612047
0.050286
0.0506705
0.0523627
0.0541236
0.0560351
0.0663928
0.0639626
0.0696927
0.0728347
0.0749041
0.0782349
0.0475254
0.0496679
0.0476117
0.0438727
0.043934
0.0454458
0.0467594
0.0447534
0.0509279
0.0485202
0.169915
0.222051
0.0434372
0.0412712
0.304913
0.257193
0.255513
0.326934
0.265677
0.17739
0.199507
0.230036
0.0861815
0.0808368
0.0934813
0.0994577
0.0972087
0.107371
0.118065
0.0920539
0.0961632
0.127289
0.134558
0.147115
0.162411
0.318254
0.27342
0.31956
0.0649497
0.0524511
0.0511497
0.0581017
0.0604347
0.0523506
0.0522429
0.0538896
0.0560982
0.0628431
0.0655458
0.0683769
0.0715453
0.07466
0.0773511
0.0791724
0.05073
0.0507087
0.0453181
0.0450457
0.0462647
0.0476403
0.0493121
0.0529671
0.0500676
0.0451154
0.0510823
0.0557022
0.31422
0.260681
0.243283
0.192409
0.191702
0.331402
0.261553
0.17987
0.190323
0.209855
0.0906919
0.0845432
0.0826235
0.117015
0.102104
0.106039
0.0975871
0.101434
0.125649
0.133304
0.149907
0.164021
0.087028
0.350392
0.329252
0.352846
0.0777279
0.055125
0.0538545
0.0581752
0.0604453
0.0540305
0.053913
0.0560533
0.0628485
0.0654781
0.0682847
0.0713625
0.0739964
0.0759228
0.0790993
0.0798324
0.0532129
0.054194
0.0469656
0.046971
0.0482613
0.0496738
0.0508926
0.0548004
0.0517955
0.0508242
0.0469149
0.0479015
0.311106
0.166955
0.230566
0.222495
0.192826
0.334703
0.262779
0.175032
0.195203
0.215467
0.241861
0.0956993
0.0839853
0.0893884
0.0840318
0.103494
0.114226
0.108682
0.12574
0.138973
0.152621
0.160453
0.0879227
0.386869
0.371438
0.405545
0.0809003
0.0590793
0.0559638
0.0604228
0.0579751
0.0560394
0.0561971
0.062665
0.0653808
0.0709957
0.0679701
0.0733245
0.0758573
0.0759436
0.0787372
0.082152
0.056871
0.056096
0.0573878
0.0489199
0.04873
0.0508966
0.0524992
0.0535602
0.0530926
0.0487641
0.050434
0.316673
0.255876
0.144123
0.150031
0.205882
0.197877
0.174268
0.271596
0.331827
0.178324
0.194489
0.211276
0.236283
0.101053
0.0855575
0.0936483
0.0868778
0.0896802
0.110237
0.114315
0.106576
0.127834
0.140724
0.150769
0.164765
0.114243
0.425743
0.426215
0.439766
0.0927038
0.0628291
0.0580681
0.0606818
0.0582861
0.0580182
0.06324
0.0653627
0.0704025
0.0681896
0.0741608
0.0760721
0.0781835
0.0808134
0.083856
0.060124
0.0598697
0.0596107
0.0555849
0.0509802
0.0510868
0.0525645
0.0534746
0.0544421
0.0507346
0.0545754
0.332287
0.280528
0.242757
0.220205
0.125446
0.133328
0.147221
0.189091
0.178081
0.162938
0.112964
0.273096
0.326601
0.331985
0.177865
0.194801
0.225571
0.211583
0.0993951
0.0881184
0.0924775
0.0893789
0.112206
0.119609
0.105151
0.165273
0.130088
0.137725
0.152394
0.113141
0.473106
0.482242
0.505308
0.0599301
0.0994842
0.0645924
0.0611476
0.0607655
0.066695
0.0651656
0.0716398
0.0720622
0.0693426
0.0750061
0.0783803
0.0814365
0.0646472
0.0625503
0.0620266
0.0576443
0.0568252
0.0527315
0.0522501
0.0541413
0.0559709
0.0525819
0.0562084
0.0689927
0.0741642
0.276864
0.245261
0.214982
0.196168
0.120339
0.135278
0.150085
0.170769
0.160963
0.108479
0.0999264
0.0926451
0.0825023
0.0790683
0.316712
0.265745
0.316411
0.271536
0.166291
0.179113
0.192034
0.220965
0.0985759
0.0905874
0.093406
0.120369
0.112729
0.105503
0.102385
0.152049
0.151899
0.129711
0.141208
0.13683
0.561917
0.529965
0.526435
0.0666889
0.10115
0.0631769
0.0643509
0.0721649
0.0683714
0.0746815
0.0773104
0.080271
0.0648863
0.0643759
0.059975
0.0586213
0.0573938
0.0549059
0.0544396
0.0561992
0.060777
0.0546783
0.0761813
0.0696918
0.0729739
0.240222
0.219898
0.193322
0.175527
0.120687
0.137632
0.147274
0.15429
0.11371
0.0996839
0.102293
0.0776867
0.0909418
0.0802071
0.0844412
0.270056
0.251219
0.237679
0.216712
0.160549
0.174382
0.199627
0.149446
0.0968162
0.0934655
0.117314
0.108098
0.113227
0.106384
0.100771
0.142453
0.14388
0.130359
0.109731
0.615711
0.595868
0.585958
0.0834986
0.106009
0.0673846
0.0611319
0.0717545
0.0755898
0.0788874
0.0673075
0.0623843
0.0612879
0.0601526
0.0581436
0.0566673
0.0559436
0.0586211
0.0562867
0.0741112
0.0703321
0.211557
0.215162
0.197772
0.17387
0.157331
0.127472
0.135488
0.140605
0.116536
0.110487
0.102395
0.078811
0.0817585
0.0956394
0.0849412
0.0893226
0.224162
0.214856
0.211725
0.196732
0.140615
0.162656
0.171076
0.151435
0.194424
0.0963315
0.12077
0.11463
0.111044
0.10422
0.0994698
0.123612
0.130032
0.131213
0.115769
0.730883
0.687012
0.732764
0.133453
0.0708372
0.0790735
0.0747128
0.0781527
0.0650864
0.063498
0.0619533
0.0605186
0.0588308
0.0584205
0.0597688
0.0587531
0.0741442
0.0679301
0.194005
0.195429
0.176158
0.155573
0.1426
0.125506
0.129216
0.116374
0.108725
0.101897
0.0777907
0.0812213
0.0959921
0.0856277
0.0902391
0.196333
0.189997
0.172801
0.126195
0.132678
0.142127
0.150054
0.175249
0.112162
0.107061
0.101981
0.117577
0.11505
0.122635
0.12615
0.855471
1.17252
0.321295
0.0750201
0.0880398
0.0781132
0.0665036
0.0650156
0.0628517
0.0610204
0.0603374
0.0622014
0.0711032
0.0691893
0.175154
0.173412
0.156032
0.141084
0.130885
0.119481
0.111175
0.103882
0.0975483
0.0744834
0.0782483
0.0918788
0.0823183
0.0868735
0.171672
0.173263
0.15635
0.127904
0.133963
0.140934
0.12328
0.155992
0.108651
0.104317
0.112294
0.113359
0.118378
0.198943
1.66907
1.61403
0.57944
0.0801032
0.122182
0.0672455
0.0655821
0.0627098
0.0633864
0.069009
0.0726282
0.0706923
0.156781
0.156541
0.14143
0.129762
0.12095
0.112623
0.105219
0.0989907
0.0758742
0.079843
0.0932561
0.0837555
0.0884257
0.154182
0.154669
0.142085
0.125249
0.129737
0.118804
0.141626
0.106208
0.10896
0.109898
0.112766
4.05684
0.331444
2.33333
2.47958
1.1687
4.49706
0.0682296
0.0658028
0.0670721
0.0668071
0.077223
0.0734344
0.0713263
0.139985
0.140841
0.130337
0.120652
0.112196
0.10549
0.0990715
0.0773421
0.0806352
0.0940963
0.08502
0.088967
0.13751
0.137775
0.13022
0.119148
0.112973
0.127975
0.130351
3.27188
3.60152
0.636026
3.59959
3.58062
4.88534
3.96703
6.43332
0.0691852
0.0659337
0.0704062
0.0706078
0.0943432
0.0744883
0.0709335
0.13114
0.130744
0.120701
0.112466
0.105464
0.0995873
0.0780783
0.0817625
0.094423
0.089892
0.0856633
0.129611
0.122246
0.113346
0.120803
0.12326
0.122457
2.21315
2.86063
3.18079
1.20767
4.51378
3.48151
6.20019
6.25895
0.0709381
0.0705045
0.0754157
0.134986
0.075358
0.07157
0.11844
0.118977
0.11166
0.104913
0.0994222
0.0779733
0.0825347
0.094641
0.0904024
0.0862713
0.122343
0.115437
0.116253
0.11843
0.116892
0.116214
1.93743
1.80999
2.4966
2.78423
3.44214
5.863
4.10784
3.02881
5.86379
6.05939
0.073159
0.0746837
0.0803166
0.0744932
0.0754619
0.0775515
0.114041
0.106965
0.102066
0.0968117
0.0814784
0.0818165
0.093736
0.0890156
0.0867671
0.115173
0.112629
0.113614
0.1119
0.110958
1.52358
1.47787
2.16402
2.39527
6.31076
2.98059
5.59523
5.42187
3.6832
2.58983
5.49522
5.85211
0.0749059
0.0774224
0.0775025
0.0788068
0.0819798
0.109998
0.105375
0.101391
0.0970382
0.0836364
0.0848373
0.0936752
0.0902976
0.0875765
0.109164
0.107279
0.105298
6.14536
1.19368
1.20129
1.84526
1.98305
5.8955
2.5813
5.25537
5.15512
4.96531
3.23835
2.13137
5.09645
5.64059
0.0772138
0.0780765
0.0802057
0.0816227
0.104231
0.102421
0.099878
0.096754
0.0841734
0.0862862
0.0938317
0.0910669
0.0885803
6.73655
5.57123
0.934009
0.961474
1.51146
1.46827
5.43181
2.22561
5.10366
4.80234
4.70485
4.49115
2.74413
1.57443
4.65442
5.42222
7.73308
6.19706
5.00123
0.725785
0.737754
1.09826
0.599051
4.94334
1.8882
4.96094
4.68342
4.35592
4.24508
3.98874
2.11207
0.67054
4.12971
5.19128
8.43947
7.33102
5.61373
4.43764
0.548972
0.491939
0.398217
4.42928
1.55361
3.49764
4.65091
4.26083
3.91301
3.76517
3.42511
1.04659
3.41835
9.75258
7.95919
6.86673
4.99706
3.87226
0.367083
0.1273
3.85902
1.36379
2.74131
3.05171
4.32776
3.83817
3.46213
3.23642
2.71285
2.17253
11.2487
8.99245
7.49114
6.33904
4.35532
3.27658
0.0832275
3.12211
1.42688
2.37746
2.63005
3.98901
3.40475
2.97481
2.5783
1.51232
11.9095
11.2473
8.11644
6.99954
5.69184
3.67443
2.56205
1.71902
1.3082
1.27815
2.05769
2.2194
3.62338
2.93467
2.37898
1.48407
12.1563
11.6007
11.0342
7.17208
6.48459
4.91508
2.88612
1.35724
1.48533
1.1987
1.14334
1.76382
1.80858
3.2054
2.35879
1.39292
8.17412
12.1509
11.0696
10.604
6.1821
5.89762
3.95894
1.65558
1.59759
1.38048
1.09208
1.01809
1.48099
1.38872
2.66745
1.41474
6.91222
8.05192
11.8905
10.3345
9.95197
5.15103
5.09632
2.58102
1.6092
1.48253
1.273
0.984471
0.895893
1.19419
0.949142
1.76068
6.28314
6.61681
7.70219
11.4221
9.48796
9.03101
4.2996
3.43154
1.51209
1.49314
1.36503
1.15979
0.870462
0.763205
0.869328
0.468755
6.2998
6.09967
6.19668
7.18086
10.7347
8.57032
7.68914
3.14158
1.33094
1.40528
1.37476
1.24211
1.03576
0.740078
0.587387
0.403774
6.85463
6.09807
5.78453
5.70478
6.53209
9.79321
7.57488
5.3597
1.42723
1.21903
1.29608
1.25104
1.10838
0.889715
0.566446
0.262973
8.06834
6.54479
5.77223
5.37979
5.15863
5.76428
8.36824
6.01862
2.64725
1.27944
1.11041
1.18127
1.11655
0.95208
0.691106
0.250252
11.981
7.9356
6.12297
5.36235
4.90082
4.5456
4.85216
5.79817
3.54037
2.30469
1.14511
1.00098
1.05553
0.959443
0.741502
0.334382
11.7327
11.9951
7.58631
5.63157
4.88121
4.34004
3.82008
3.8057
4.95574
3.08104
1.99872
1.0201
0.885031
0.907582
0.747944
0.371147
11.0696
11.4269
11.7389
7.08169
5.084
4.319
3.65412
2.88873
5.13987
4.6446
2.6487
1.71436
0.897678
0.75254
0.706807
0.377031
9.77044
11.0587
10.8589
11.2711
6.48342
4.46965
3.63097
2.76362
5.23697
4.71754
4.32282
2.23239
1.4393
0.764134
0.576798
0.348455
8.42155
8.97991
10.8025
10.0081
10.5401
5.80336
3.7374
2.72968
5.56617
4.78092
4.29225
3.98425
1.81868
1.15985
0.587302
0.259314
7.78187
7.95772
8.0774
10.2729
8.93525
9.41534
4.99517
2.78378
5.85971
5.1266
4.33431
3.86736
3.61861
1.39776
0.842419
0.26276
6.75369
7.37537
7.52446
7.11488
9.44943
7.62363
7.54153
3.8765
6.65218
6.26602
5.42427
4.67821
3.89328
3.43162
3.19915
0.95182
0.383027
6.13646
6.21802
6.90128
7.08025
6.09794
8.27019
6.08156
5.09151
5.08231
6.44243
5.93835
4.97195
4.22035
3.44419
2.9575
2.6553
0.456106
6.2489
5.56154
5.63686
6.35883
6.58567
5.07174
6.73955
3.75082
3.40932
4.53491
4.68571
6.22489
5.56949
4.49932
3.74163
2.95736
2.37278
1.72602
5.84671
4.9903
5.01999
5.72176
6.01878
4.29312
5.87766
2.94522
2.06761
4.31045
4.02618
4.25845
6.00324
5.16706
3.99684
3.21262
2.36042
1.40383
2.44227
3.56278
5.39511
4.42608
4.37661
4.94924
5.22853
3.38306
2.53827
1.6335
3.82458
3.54574
3.81489
5.7779
4.71745
3.43156
2.55241
1.35591
1.9864
3.13536
4.9154
3.86119
3.69315
3.99724
3.51361
2.18637
1.28409
3.37754
3.09099
3.34973
5.54637
4.18038
2.71248
1.43974
1.61971
2.74892
4.40896
3.26649
2.90135
2.62675
1.85776
1.0083
2.95776
2.64629
2.83218
5.30099
3.44653
1.48562
1.31469
2.39051
3.84379
2.55487
1.67945
1.55597
0.786204
2.54662
2.17953
2.16828
2.14595
1.05072
2.04466
3.11364
1.35932
1.36853
0.59618
2.11092
1.60589
1.04414
0.805798
1.6813
1.73079
0.39963
1.568
0.662536
0.539056
1.2321
0.095928
0.646658
0.148619
0.474824
0.0862871
0.084341
0.0856279
0.0856374
0.0870847
0.0868568
0.0875061
0.0875385
0.0882495
0.082738
0.0838419
0.0842683
0.085468
0.0857856
0.086933
0.0875457
0.0918809
0.0933114
0.0946474
0.0968918
0.0983401
0.0884445
0.0892436
0.0882733
0.0884321
0.0887419
0.0883793
0.0896063
0.089337
0.0903769
0.101028
0.102182
0.0814157
0.0825203
0.083142
0.084232
0.0848571
0.0858043
0.0867988
0.0878893
0.0888482
0.0898276
0.0909299
0.0923026
0.0941108
0.0955513
0.09864
0.100127
0.105617
0.106371
0.0902313
0.0911045
0.0921597
0.0931222
0.0944967
0.0959428
0.0983196
0.089636
0.0900937
0.0896198
0.0896329
0.0905178
0.0898749
0.0918757
0.091356
0.0927016
0.0981493
0.0999644
0.110603
0.112281
0.104861
0.104616
0.109682
0.0804111
0.0814367
0.0823017
0.083311
0.0842609
0.0852597
0.086463
0.0873951
0.0891237
0.0902108
0.0916756
0.0929586
0.0969299
0.0983436
0.101502
0.102629
0.107154
0.108416
0.11356
0.115707
0.122097
0.122199
0.129184
0.0910777
0.091802
0.0927628
0.0937808
0.0952505
0.0908135
0.0910863
0.0911649
0.090853
0.0924218
0.0916467
0.09512
0.094064
0.0933456
0.0956639
0.099315
0.0995467
0.104586
0.106211
0.125787
0.113767
0.121451
0.110548
0.113446
0.0800095
0.0809395
0.0820819
0.0830793
0.0843407
0.0852562
0.0867418
0.0876499
0.089259
0.0902268
0.092467
0.0945828
0.102708
0.0998501
0.106136
0.108648
0.113121
0.114612
0.119497
0.129254
0.134903
0.135745
0.149468
0.152087
0.145759
0.154301
0.154898
0.196038
0.0920557
0.0928138
0.0936347
0.094589
0.097469
0.096225
0.0920966
0.092133
0.0927791
0.0923017
0.0952382
0.0942257
0.0934812
0.0996736
0.0983496
0.095952
0.0983941
0.100292
0.248628
0.214735
0.307521
0.104698
0.105008
0.110521
0.112757
0.127361
0.129475
0.165355
0.1446
0.121881
0.127938
0.0807264
0.0813176
0.0829348
0.0835515
0.0853373
0.085886
0.0878736
0.08865
0.0918127
0.0910541
0.0953563
0.0967109
0.101558
0.103913
0.113474
0.111648
0.120907
0.129743
0.136739
0.137512
0.149362
0.714194
0.702221
0.493728
0.162339
0.171153
0.186432
0.192721
0.202537
0.217832
0.218448
0.491278
0.29291
6.43676
7.00329
6.85424
6.54014
7.16334
7.1853
6.95625
6.58285
0.093196
0.0935574
0.094559
0.0954939
0.0971855
0.0961145
0.0934789
0.0932972
0.0952796
0.0944605
0.093942
0.1019
0.100516
0.0992004
0.0980619
0.0967065
0.0996322
0.105656
0.101571
0.104955
6.03559
5.06812
1.86199
1.31916
0.772639
0.174861
0.249683
0.305721
0.564868
0.112759
0.113124
0.114106
0.113665
0.125732
0.127859
0.139647
0.136025
0.16415
6.22901
6.91996
4.5434
7.14374
7.20556
7.19017
5.44507
6.07838
6.16739
7.17409
0.0869384
0.084525
0.0886577
0.0873152
0.0910596
0.090054
0.0936674
0.0934933
0.0966346
0.0963984
0.100374
0.100383
0.108062
0.111182
0.11675
0.115758
0.121495
0.146959
0.124669
0.15983
0.211242
0.203608
0.247716
0.248868
0.244054
1.27994
1.78624
3.41993
2.48501
1.29571
0.996507
0.356847
0.394916
0.499031
0.505229
1.02142
0.59618
0.580054
3.88662
6.05866
4.96652
5.26935
6.15816
6.68979
6.92243
6.91562
4.9765
4.92443
7.12851
7.0825
5.57521
5.79459
6.38221
7.01969
6.59968
6.96471
0.0944607
0.0946745
0.0955555
0.0968518
0.0972286
0.0962144
0.0957139
0.0950039
0.0946378
0.103986
0.102515
0.101115
0.0999383
0.0988844
0.0978917
0.0975099
0.100507
0.100884
0.104795
0.105294
0.109703
0.104601
2.68315
4.52686
3.52994
5.91354
4.61562
1.67621
2.70581
1.43466
0.753061
0.113109
0.609667
0.200245
0.348262
0.256117
0.123175
0.120083
0.129177
0.124173
0.132123
0.130834
0.149085
0.143113
0.200518
6.2462
7.08737
5.9464
4.2894
4.70209
3.65264
7.32294
7.42637
7.24663
5.99581
4.52813
5.61468
0.188908
0.103207
2.10989
0.646751
0.135787
0.105393
0.124297
0.105211
0.119358
0.104649
0.117851
0.112426
0.109893
0.121457
0.120478
0.143096
0.176039
0.165043
0.201455
0.283361
0.252696
0.336766
0.661805
0.377571
0.407597
0.903225
1.02977
0.552148
0.485838
0.655938
0.633679
0.798767
0.799598
1.92836
2.54664
3.6826
2.97794
2.08543
1.51563
1.16533
1.16964
1.75752
1.31102
1.42954
4.93833
4.32173
5.15451
6.16936
5.86768
6.84962
6.64567
7.10516
7.01148
7.05399
5.22017
5.77677
6.98975
7.00386
6.84537
6.81367
6.5118
0.0976857
0.0956964
0.0957571
0.096603
0.0971998
0.0964498
0.0961672
0.0983383
0.106113
0.104606
0.103011
0.101721
0.100582
0.0994378
0.0988004
0.0978643
0.108095
0.10574
0.107976
0.110326
0.108803
0.110229
0.101438
0.101335
0.101775
0.103442
0.114029
0.108302
0.109995
0.105454
4.62909
4.09874
3.03548
0.983613
2.53499
1.74116
0.119496
0.132979
0.131551
1.09823
0.262886
0.561271
0.363398
0.143385
0.139665
0.152383
0.148479
0.176128
0.16515
0.276703
4.41586
6.61366
7.2223
6.23341
5.30792
7.45495
3.35773
3.90595
2.72673
7.66055
7.44854
6.66573
5.50172
4.00028
4.7394
4.74076
1.19312
0.340582
4.56649
3.58405
0.686531
0.335023
0.521618
0.254503
0.401571
0.216311
0.34239
0.182636
0.247552
0.445829
0.78038
0.555042
0.962917
0.621016
0.758383
1.34635
1.67204
1.83011
1.18532
1.19743
1.86092
2.09384
1.24459
1.37534
1.67297
1.58398
1.9597
1.67437
3.94909
2.76612
3.31107
3.1431
2.68362
2.53667
2.90869
2.19005
2.70119
5.38845
4.52429
6.74392
6.05938
6.36835
7.07486
6.97263
6.92201
7.00151
6.52614
6.61397
0.10997
0.108458
0.0970662
0.0982453
0.0975381
0.0969995
0.097014
0.0985758
0.0997001
0.104782
0.102922
0.102217
0.10075
0.100236
0.0991504
0.0988472
0.0980961
0.106734
0.104837
0.105984
0.107102
0.105414
0.106762
0.101124
0.101725
0.103017
0.10567
0.120815
0.113497
0.114822
0.108635
1.79885
2.65235
3.52804
0.129586
0.142656
0.141332
0.163949
0.159436
0.784057
1.83898
0.360365
0.709498
0.199262
0.182585
0.274005
0.236369
0.369356
3.59594
5.12878
4.76279
6.87817
6.98514
7.36257
7.79243
7.71822
2.6555
3.60394
7.40732
6.47096
5.72651
4.05226
4.76344
4.77066
2.08626
4.79459
5.11644
5.63863
3.79034
2.39489
5.78651
6.27725
3.38022
1.73727
2.62089
1.23136
2.0188
1.02332
1.35992
1.58048
1.20713
2.18779
1.7953
1.73118
1.70393
1.82591
2.77666
2.87107
2.9992
3.3161
2.5355
2.37393
3.4026
3.59105
2.57461
2.82577
3.30462
3.11551
3.49679
4.70726
4.18906
4.54804
3.71763
4.26354
4.23158
3.99003
4.41068
6.37117
5.70634
6.97046
6.81807
6.9119
6.92613
6.35236
6.45662
0.111827
0.109318
0.107507
0.106011
0.0985781
0.0984298
0.0987401
0.0995343
0.100677
0.103867
0.102439
0.101764
0.100652
0.100238
0.0994199
0.0994641
0.103702
0.104573
0.103088
0.104272
0.103446
0.104478
0.10207
0.102167
0.104021
0.109974
0.105684
0.102604
0.130499
0.121543
0.122571
0.115441
0.138643
3.15765
2.29754
0.154781
0.151521
0.184849
0.179644
0.263409
0.312989
0.249461
0.790865
2.0768
0.956328
0.499567
0.416937
0.863352
5.07815
4.23262
7.38284
6.75872
7.96472
7.84924
7.56526
7.2873
6.88226
6.53696
0.210532
0.705443
4.68028
5.55243
1.28243
3.8944
5.77816
5.47017
6.30832
6.0584
5.52903
6.20883
5.92869
5.31243
5.37362
3.55658
4.28998
3.29628
2.92015
2.89806
4.23719
3.34018
4.18607
3.5152
3.69377
4.28966
4.65807
4.60094
4.71083
4.2514
4.11749
3.76087
4.91978
5.0926
4.25946
4.44543
5.11521
5.01052
5.81485
6.0799
5.63462
5.50594
5.80981
5.48537
5.69679
6.82123
6.70138
6.68383
6.72487
6.07285
6.17632
0.0883022
0.109364
0.112428
0.111046
0.109207
0.106993
0.105569
0.104043
0.0996426
0.0998233
0.100167
0.100278
0.102636
0.102369
0.101658
0.10091
0.10042
0.10006
0.101264
0.102194
0.101461
0.102485
0.102115
0.103026
0.10225
0.10626
0.107076
0.116207
0.105179
0.106737
0.142581
0.12641
0.130096
0.11712
0.159425
0.186614
0.168294
4.47187
2.79401
0.250714
0.210617
0.49109
0.409721
1.21212
1.0473
0.887059
2.32514
3.05952
1.66077
7.34178
6.22746
8.098
8.21444
7.96126
7.56332
7.10439
6.74564
0.148026
0.453116
4.10857
6.35628
0.844169
2.38465
6.33681
6.15563
5.94291
6.54581
6.07206
5.58299
6.94264
6.23697
6.87151
6.45791
6.04484
6.03681
5.64061
4.70227
4.75388
5.93717
5.41753
5.16832
5.39454
5.61139
5.49969
5.75633
5.68168
5.63634
5.58241
5.88743
5.13198
5.4143
5.923
5.9109
5.63855
5.73417
6.03622
6.07621
6.29381
6.22843
6.63642
6.40276
6.38133
6.46189
6.5102
5.76732
5.92032
0.0812878
0.0851319
0.0894875
0.108544
0.111028
0.110167
0.108877
0.108317
0.106996
0.105156
0.102738
0.104171
0.107606
0.108723
0.101443
0.100386
0.0997176
0.0998972
0.100681
0.0999318
0.0998275
0.100273
0.100896
0.100628
0.101576
0.101466
0.102139
0.103061
0.105524
0.108882
0.114497
0.11723
0.110756
0.13903
0.163029
0.125581
0.14236
0.177379
0.231521
0.20094
0.251453
0.390118
0.285307
6.40969
5.35162
1.12173
0.82228
2.5314
1.97803
4.38698
5.8016
3.95124
8.41792
8.36809
8.50988
8.03169
7.71015
7.19655
0.133009
0.320193
3.27303
6.21657
0.559115
1.58592
6.0994
6.91305
5.33422
5.50439
6.67885
5.91893
6.84437
6.61167
5.25088
5.76543
6.50728
6.38561
6.50637
6.22909
6.43529
5.79593
5.99381
6.12479
6.12159
5.87704
5.92095
5.76591
5.79612
5.75971
5.65382
5.69982
5.57775
5.42383
5.41704
5.94662
5.93582
5.96739
5.85134
6.00719
5.95813
5.98515
5.86738
5.99539
6.23282
6.29581
6.00675
5.58523
5.75074
0.0798501
0.0815202
0.0836128
0.0882526
0.0916125
0.107666
0.107288
0.106747
0.105892
0.105941
0.101945
0.103819
0.103085
0.104861
0.105327
0.105129
0.104386
0.105593
0.103394
0.103374
0.101401
0.101474
0.103492
0.100556
0.100017
0.100393
0.100161
0.101777
0.10029
0.100536
0.100848
0.101112
0.101414
0.101963
0.102343
0.10569
0.111404
0.107709
0.115607
0.12437
0.122093
0.13039
0.158375
0.182866
0.142651
0.161772
0.211746
0.27764
0.67717
0.612217
0.48324
0.912247
1.83247
1.79357
8.61724
7.78522
4.25142
4.42813
6.74943
7.91892
6.75396
9.19674
8.71906
8.49236
8.05699
0.125615
0.245154
2.48014
5.11484
0.386257
1.081
5.20522
7.04072
5.64786
5.15758
6.79141
6.34773
5.66376
5.30657
4.96202
4.94026
6.01077
6.12625
5.2083
5.65349
5.40161
5.83881
5.75974
5.79519
5.78945
5.42196
5.45121
5.01485
5.00208
4.89207
5.17016
4.77343
4.62991
4.06471
3.69947
4.36647
4.45183
5.39097
5.8139
5.81703
5.30348
5.40257
5.4539
5.40798
5.04283
5.47739
0.105015
0.0799021
0.0806993
0.0819047
0.0839124
0.086301
0.0905738
0.0941157
0.0809468
0.080973
0.0825052
0.0822592
0.0844169
0.0837399
0.0994838
0.0998619
0.0976154
0.0980875
0.0956138
0.0962185
0.0934577
0.0942581
0.0866419
0.0856737
0.0889932
0.0876979
0.0912487
0.092106
0.0898988
0.104495
0.103983
0.103446
0.103806
0.102818
0.102498
0.103224
0.102315
0.102511
0.101934
0.103083
0.100439
0.100736
0.098546
0.0988951
0.102416
0.100983
0.102221
0.100842
0.101601
0.101814
0.10161
0.101807
0.102011
0.102695
0.103011
0.103097
0.102796
0.103467
0.109279
0.105129
0.118749
0.112479
0.123781
0.13754
0.132947
0.148658
0.186311
0.235015
0.168
0.20077
0.292148
0.634766
3.15174
2.38943
3.22632
1.46365
3.14008
5.21121
6.01605
9.53909
9.41278
8.3395
9.4727
8.53589
9.64731
8.86201
0.118797
0.195762
4.60849
1.71757
2.76455
0.285475
0.752155
6.18861
6.87948
5.795
5.20495
6.5834
6.13327
6.62717
4.77337
4.68342
4.6891
5.27874
5.18848
4.42677
4.66454
4.68003
4.42981
4.85239
4.99542
4.53548
4.47188
4.07643
4.01889
3.53974
3.6096
3.8325
2.86449
2.87757
2.57347
2.58379
3.31418
4.85866
4.73319
3.61416
4.18018
4.02311
0.105228
0.0928278
0.0963952
0.0817871
0.082702
0.0843185
0.0865899
0.0892265
0.0826018
0.0829238
0.0837877
0.0838494
0.0852582
0.0851775
0.0966908
0.0972926
0.0948327
0.095654
0.0928283
0.0938452
0.090728
0.0920253
0.0870389
0.0866918
0.0887906
0.0901224
0.0883499
0.102436
0.101959
0.10172
0.102488
0.102299
0.100005
0.100502
0.100096
0.10115
0.098245
0.0987094
0.0964144
0.0969364
0.102126
0.10278
0.102459
0.104147
0.10358
0.103977
0.10432
0.103833
0.10464
0.105741
0.104368
0.104615
0.104148
0.112437
0.107895
0.108359
0.126976
0.117318
0.133918
0.15672
0.151208
0.177519
0.208957
0.421959
0.204569
0.275188
0.615063
1.98578
6.16214
6.89956
6.07431
7.31809
3.96791
6.81045
8.47864
9.42191
10.4184
10.1269
10.2231
0.116371
0.146121
0.201147
2.9235
4.90789
1.11632
2.17693
0.444549
5.4693
6.40794
5.35439
4.77203
5.88378
5.50213
6.33778
6.47724
6.05861
5.81058
4.2127
4.36554
4.39348
4.28832
3.94385
4.01384
3.92849
3.81745
3.963
3.98699
3.62794
3.60147
3.11157
3.19176
2.53068
2.64746
2.09506
2.14648
1.90803
1.82303
3.29267
1.83757
2.80835
4.94078
0.0958167
0.101745
0.0893435
0.0930849
0.0838997
0.0852526
0.0871881
0.0845426
0.0849126
0.0854581
0.0855412
0.0866552
0.0866525
0.0947542
0.0953831
0.0931137
0.0938997
0.0913909
0.0922771
0.0897601
0.0908067
0.0882051
0.0892996
0.0879218
0.100931
0.100875
0.100874
0.100672
0.0982254
0.099055
0.098776
0.100148
0.0965681
0.0972837
0.0949501
0.095669
0.102735
0.102125
0.104915
0.10395
0.109267
0.107572
0.110357
0.109464
0.106668
0.107685
0.110587
0.108394
0.106327
0.112145
0.107606
0.107726
0.121206
0.12058
0.139431
0.137121
0.174924
0.171357
0.232725
0.197708
0.317517
0.727851
0.261333
0.399929
1.72876
4.22614
6.45763
9.50368
9.57812
9.57629
9.78229
10.7228
10.6639
10.9645
0.710069
0.106024
0.110274
0.137973
0.181728
0.331634
3.99362
1.61563
2.42636
5.61028
4.40942
4.37394
4.83355
5.62523
6.04336
4.82458
5.30255
6.14283
6.0873
5.61304
5.18763
3.78881
3.97601
3.62143
3.63963
3.52905
3.54848
3.41328
2.95368
3.22992
3.19764
2.44873
2.63801
1.98457
2.1558
1.63662
1.75712
1.49822
1.47359
0.0939193
0.0973387
0.0864635
0.0881759
0.0909632
0.0863007
0.0877635
0.0870137
0.0874329
0.0878752
0.0879426
0.093334
0.0942506
0.0916771
0.0929245
0.0903377
0.0914924
0.089036
0.0902304
0.0890403
0.101334
0.0999628
0.100115
0.100505
0.0973036
0.0981382
0.099836
0.098254
0.0957118
0.0966616
0.0943774
0.0951851
0.105276
0.104022
0.104051
0.107986
0.106117
0.114917
0.114249
0.113485
0.115829
0.122456
0.119678
0.120148
0.117325
0.116246
0.112354
0.110092
0.120132
0.116748
0.123323
0.146962
0.136969
0.216306
0.216944
0.170824
0.202858
0.311441
0.314507
1.00582
2.03572
0.895978
3.81821
5.79029
7.69308
10.4084
11.7771
11.5458
11.5004
1.49561
2.00925
0.0999585
0.539462
1.02694
0.107886
0.112407
0.120192
0.153913
0.195446
0.316073
3.90117
3.15449
5.57895
5.13476
3.9108
4.27554
5.87294
5.97452
4.28931
4.80369
5.75766
5.58939
4.93931
3.37368
3.55624
2.95522
3.10188
3.11388
2.96442
2.52393
2.65801
2.09081
2.27476
1.75615
1.89737
1.43176
1.60796
0.0965598
0.0890816
0.0922277
0.0943563
0.0946752
0.0884552
0.0900437
0.0886776
0.0895393
0.089346
0.0896049
0.0927243
0.0938907
0.0916055
0.0925774
0.0904044
0.0914576
0.0903344
0.0943906
0.100275
0.100002
0.101445
0.0992537
0.0981085
0.0970253
0.101699
0.0971245
0.0962066
0.096125
0.105107
0.103395
0.106929
0.109557
0.109699
0.1148
0.113563
0.123174
0.125331
0.128374