/*--------------------------------*- C++ -*----------------------------------*\
  =========                 |
  \\      /  F ield         | OpenFOAM: The Open Source CFD Toolbox
   \\    /   O peration     | Website:  https://openfoam.org
    \\  /    A nd           | Version:  8
     \\/     M anipulation  |
\*---------------------------------------------------------------------------*/
FoamFile
{
    version     2.0;
    format      ascii;
    class       surfaceScalarField;
    location    "15000";
    object      phi;
}
// * * * * * * * * * * * * * * * * * * * * * * * * * * * * * * * * * * * * * //

dimensions      [0 3 -1 0 0 0 0];

internalField   nonuniform List<scalar> 
6926
(
-1.05308
0.0710304
-0.652858
-0.575153
0.174931
-0.941649
0.0740222
-0.11292
-0.539938
0.0688488
-0.756922
-0.752279
-0.0144388
-0.635251
-0.0481788
0.234424
-1.05806
-0.064882
0.0131677
-0.583537
0.177766
-0.717704
-0.644038
0.466534
-0.586709
0.133342
0.025147
-0.660141
-0.828082
-0.244412
-0.409727
-0.0679184
0.0526745
-0.568293
0.156254
-0.873958
-0.555703
-0.534205
0.000171088
-0.533756
0.257372
-0.680506
-0.165025
-0.767877
-0.57277
-0.794975
-0.217314
-0.210007
0.0233042
-0.381591
-0.191513
-0.574196
-0.122765
-0.751193
-0.896195
0.12969
-0.13117
-0.592823
0.119815
-0.423187
-0.812396
0.0723862
-0.511073
0.000171781
-0.528537
-0.00504808
-0.53411
-0.00349324
-0.102483
-0.938838
-0.388219
0.252407
-0.436958
-0.56308
-0.0424531
-0.10126
-0.471844
-0.185245
-0.511716
0.0459093
-0.797102
-0.113065
-0.705418
0.22566
-1.06843
-0.0014997
0.0947436
-0.787325
-0.00262088
-0.533632
-0.788734
-0.00795568
-0.612509
0.000175692
-0.525005
-0.00335975
0.153228
-0.139928
-0.827724
-0.818038
-0.527905
-0.011253
-0.534207
-0.0323655
-0.0383873
-0.648044
-0.523781
0.04437
-0.420777
-0.236312
-0.886583
-0.834037
0.0369351
0.000159929
-0.699401
-0.00617678
-0.867638
0.0248689
-0.983455
0.0335762
-0.727567
-0.256032
-0.533914
-0.0107251
-0.522747
-0.753592
-0.13176
-0.14349
-0.759402
-0.849008
0.000187145
-0.528043
0.0032134
-0.519905
-0.0113606
-0.174014
-0.682411
-0.389418
-0.612319
-0.528254
-0.0172062
-0.534173
-0.0219737
-0.0363954
-0.567279
-0.890083
0.0560454
-0.223853
-0.625795
0.143547
-0.0273552
0.275693
-0.391885
-0.332064
-0.558019
0.359358
-0.547875
-0.0835481
0.000177489
-0.61603
0.840962
-0.470747
-0.453763
-0.0328528
-0.958586
-0.0773627
-0.642653
-0.375951
0.0707693
-0.422385
-0.0980922
-0.533891
-0.0226717
-0.521967
-0.00891469
-0.513655
0.584358
-0.592635
-0.0690852
-0.425328
-0.512198
-0.437886
0.252505
-0.292858
-0.349065
0.0160364
-0.522934
0.461579
-0.65956
-0.0258717
-0.387627
0.000197316
-0.54668
0.0188244
-0.510652
-0.00603887
-0.516251
-0.0233642
-0.132559
-0.586248
-0.209275
-0.535604
-0.532878
-0.0185018
-0.0516421
-0.53761
-0.301366
-0.0149851
0.288996
0.869894
-0.234842
0.300144
0.00805336
-0.0535823
-0.346356
-0.284695
-0.00861808
-0.129034
-0.472423
-0.687053
-0.029516
0.000198198
-0.586712
0.121513
-0.621776
-0.575132
0.242882
-0.991439
-0.0208529
-0.551031
-0.0688958
-0.544592
0.013438
-0.533915
-0.0348674
-0.521695
-0.022519
-0.508363
-0.0023805
-0.511076
0.191057
-0.687219
0.672158
-0.357303
-0.38394
-0.0403502
-0.461782
0.0515085
-0.440924
0.000841757
-0.472267
0.0787546
-0.504954
-0.466579
0.107163
-0.41371
0.000212114
-0.580622
0.0341387
-0.529825
0.0379971
-0.524826
0.00253611
-0.528243
-0.0279988
0.0949349
-0.0988364
-0.531702
-0.542955
-0.542603
-0.0135091
0.359347
-0.406339
0.0320063
0.413501
-0.286753
-0.344299
-0.325624
-0.0893331
0.208071
-0.895124
-0.551105
0.00945701
0.000227995
-0.596397
-0.00644641
-0.605872
-0.641764
0.0601852
-0.748557
-0.000268526
-0.537325
-0.00140874
-0.543452
-0.0429894
-0.525793
-0.0408307
-0.503384
-0.0173793
-0.493364
0.0130067
-0.523855
-0.188883
-0.497494
-0.494068
0.0511248
-0.0133597
-0.478689
-0.509494
-0.0243443
-0.461282
0.0344757
-0.540838
0.30676
-0.773591
0.000251224
0.000213393
-0.61063
0.0302204
-0.583767
0.0880807
-0.111286
-0.375542
-0.457052
-0.0686552
-0.552053
-0.0185491
0.00471979
0.00261659
-0.539039
-0.551744
0.360358
-0.32869
0.000338176
0.0002679
-0.635157
-0.0347654
-0.418413
0.000390618
-0.325918
-0.00317789
-0.306061
-0.236257
-0.640766
-0.133745
-0.761379
0.00536247
0.000277567
-0.602037
0.00296407
-0.603474
-0.633404
-0.00539653
-0.688372
-0.0441517
-0.536162
-0.038439
-0.549165
-0.0529971
-0.513627
-0.064114
-0.456649
0.0143358
-0.494693
0.0282312
-0.551808
0.0543069
-0.513899
-0.467532
0.0071699
-0.514047
0.00966193
-0.481181
0.0131547
-0.464775
-0.028094
-0.551183
-0.624779
0.0143624
-0.625071
0.00054368
-0.628612
0.0750648
-0.363019
-0.205319
-0.650481
-0.590314
-0.0303934
0.00383114
0.00332015
-0.54619
-0.566462
-0.618
-0.00680317
-0.605543
-0.0121196
-0.453631
0.000452412
-0.590751
-0.0144013
0.000514456
-0.457324
-0.0388527
-0.503465
-0.108637
-0.665875
-0.00799607
-0.753383
0.0117738
0.000328294
-0.61414
-0.0325896
-0.55911
-0.623945
-0.0420484
-0.693769
-0.0531078
-0.536052
-0.0432462
-0.559026
-0.0973187
-0.480422
-0.368773
-0.0735399
0.0840418
-0.550503
0.0266141
-0.578094
-0.0180172
-0.523976
-0.472394
-0.00509668
0.00681869
-0.482903
-0.515824
0.00921892
-0.467175
-0.0294158
-0.565013
-0.63821
0.0239612
-0.630364
-0.00730234
-0.668039
0.0926236
-0.765181
-0.0304522
0.00622519
0.00398158
-0.556397
-0.59063
-0.619336
-0.0178318
-0.606078
-0.025377
-0.574875
-0.0154228
-0.591
-0.0294793
-0.0118904
-0.562471
0.000578661
-0.496755
-0.0381545
-0.573948
-0.00804391
-0.665827
0.078046
-0.831428
0.0925001
-0.707007
0.000367539
-0.0311262
-0.435484
-0.359096
-0.295975
-0.735817
-0.0733237
-0.560047
-0.0497556
-0.582595
0.332894
-0.617625
-0.221068
-0.157893
-0.549502
0.000387851
0.0656673
-0.589557
-0.593879
0.0161522
-0.0156558
-0.537736
-0.478831
0.00295963
-0.514802
-0.00158311
-0.478361
-0.00292263
-0.465836
-0.0296296
-0.58514
-0.659721
0.0156425
-0.638117
-0.0289059
-0.69171
0.0191525
0.0025749
-0.014936
-0.544036
-0.618508
-0.61373
-0.0422192
-0.602415
-0.0366913
-0.570493
-0.0359298
-0.593476
-0.038419
-0.0324983
-0.549886
-0.002156
-0.559736
0.000635205
-0.535545
-0.00249439
-0.579497
0.085171
-0.672952
-0.12691
-0.704518
0.492506
-0.395559
-0.25484
-0.302074
-0.665724
-0.366067
0.0226579
0.108155
-0.526371
-0.0830661
-0.698049
-0.0594167
-0.606244
0.0557561
-0.607714
-0.527254
0.000410289
-0.600873
0.00738212
0.0274733
-0.600878
0.00891405
-0.490668
-0.558452
0.0251904
-0.0333405
-0.470211
-0.504547
-0.0267963
-0.47238
-0.0315938
-0.612962
0.0193084
-0.490353
0.414872
0.0561732
-0.699991
0.023924
-0.625176
-0.103721
-0.0495368
-0.010472
-0.484027
-0.648892
-0.600069
-0.0673263
-0.58223
-0.0545303
-0.555979
-0.0734268
-0.0246018
-0.596047
-0.0822996
-0.506177
-0.00588029
-0.546161
0.0103004
-0.569401
0.000694304
-0.538733
0.0367387
-0.531065
-0.532695
-0.292504
0.152247
0.00353774
-0.663143
-0.0224786
-0.68204
0.105473
-0.771197
0.562669
-0.709355
0.00179891
0.0448115
-0.572982
-0.525879
0.000423833
-0.0388865
-0.603406
-0.00156569
-0.643565
0.0299708
-0.610211
-0.601387
0.000924318
0.0137515
-0.607247
0.0116418
-0.601687
-0.505822
0.0617756
-0.0301367
-0.501849
-0.453244
-0.123233
-0.379284
-0.0680918
-0.546436
0.960471
-0.645463
-0.315008
-0.368036
0.541164
-0.153819
-0.562196
-0.296193
0.426271
-0.184481
0.173082
0.696716
0.319928
0.192338
0.292666
-0.058733
-0.322826
-0.614444
-0.947794
-0.474947
-0.576569
-0.688685
0.146412
-0.553686
-0.189529
0.00326039
-0.581548
-0.605559
-0.0639151
-0.316086
-0.371773
-0.00292005
-0.509138
0.0193018
-0.555163
-0.424451
0.135484
0.0237262
-0.592433
0.000750117
-0.502745
-0.439732
0.0609134
-0.490553
-0.195068
0.100156
-0.782195
0.0632701
-0.453668
-0.721551
-0.0606447
-0.00898782
-0.762209
-0.673531
-0.0052153
-0.0725231
-0.495243
-0.531538
0.000443823
-0.599164
-0.00179975
0.0201543
-0.59359
-0.167999
-0.455411
0.0259504
-0.62241
-0.604321
-0.00200148
0.0475963
-0.717375
-0.581459
-0.575679
-0.305455
-0.437184
-0.277251
1.01864
-0.0482191
0.373176
-0.504029
0.427086
-0.0704033
-0.551934
0.530858
-0.132743
-0.669086
-0.179041
-0.0184525
-0.703098
0.656845
-0.0177742
-0.657523
0.604485
0.0216248
-0.0438789
-0.582231
-0.0824133
0.77913
-0.410597
0.135584
0.467351
0.411033
0.0172172
0.397705
-0.0293516
-0.40193
-0.788193
-0.638694
0.208537
-0.430735
-0.397488
0.165328
-0.592803
0.0450647
-0.690528
-0.429445
0.179022
-0.174029
-0.082401
0.23892
-0.472605
-0.457094
0.0359148
-0.525751
0.0453781
-0.576815
-0.364638
0.0603906
0.028705
-0.620388
-0.442625
0.000793889
0.520225
-0.362101
-0.0948543
-0.104287
0.682709
-0.0865085
-0.13306
0.595874
-0.0091631
-0.550786
0.574417
-0.00200576
0.0375098
-0.799719
-0.708544
0.142092
-0.261263
-0.376073
-0.389914
0.000468412
-0.598116
-0.000603778
-0.0101981
-0.595923
0.0799115
-0.647551
-0.812684
-0.611064
-0.0133476
0.141871
-1.1365
-0.745043
0.984561
-0.10559
-0.188554
0.462203
-0.00174805
-0.611503
0.526927
-0.0481667
-0.727597
-0.0629467
-0.0407923
-0.66061
-0.743891
0.0495477
-0.0582192
-0.57356
0.00271289
0.637806
-0.00300343
-0.637516
-0.498526
0.0137548
-0.00183408
0.45543
0.792885
0.329876
0.079323
0.410295
0.00462664
0.434988
-0.00213741
-0.207391
-0.939582
-0.787047
0.277336
-0.509496
0.0405977
-0.588336
0.095052
-0.54666
-0.260172
0.0745563
-0.36661
-0.0675903
-0.0821525
0.111776
-0.502229
-0.503331
0.0567732
-0.537146
0.102098
-0.650208
-0.383041
0.00080582
0.013072
-0.632666
0.423707
-0.466709
-0.0518521
-0.0471906
-0.547128
-0.0526407
-0.0377624
0.566589
-0.00133469
0.637963
-0.00216259
0.11615
-0.915869
-0.853657
-0.0495989
-0.571663
0.766506
-0.669631
-0.0974266
0.000551812
0.000518166
-0.595948
-0.00169946
0.00124247
-0.597769
-0.243689
-0.426552
0.000610429
0.707354
-0.416077
-0.340876
0.0464555
-0.125528
-0.6407
-0.786948
-0.475078
-0.0433891
1.01381
0.84137
-0.0610597
-0.0747818
0.550939
-0.02576
-0.633537
0.526806
0.058564
-0.750204
0.0537203
0.640017
-0.639907
-0.00311295
-0.895643
0.151752
-0.697958
-0.197685
-0.567077
0.0622609
-0.269416
-0.366405
0.692616
0.100269
-0.00534218
0.00327812
-0.00335914
-0.637435
-0.432987
0.639952
0.145353
0.453851
0.0357677
0.442162
-0.00254677
0.580506
-0.0317048
-0.136961
-0.170051
-0.63257
-0.646671
0.123
-0.591898
0.0769514
-0.570236
0.0872036
-0.522087
-0.309243
0.000758936
-0.37749
0.000656113
-0.0673776
0.0745851
-0.509436
-0.513936
0.0737338
-0.508782
0.00130472
-0.63844
-0.63526
0.00339999
0.425138
-0.477159
0.000169545
0.00045734
-0.529566
-0.000234238
-0.000739514
0.637923
-0.00129501
0.639814
-0.00196009
0.223786
-1.13965
0.727298
-0.272302
-0.698685
-0.0174121
0.163617
-0.562282
-0.587833
-0.58882
-0.00660965
-0.590815
0.00254616
0.00496876
-0.604438
-0.699534
0.000679826
0.0561343
-0.646338
-0.673596
-0.283403
0.0894991
-0.538663
-0.224432
0.399853
-0.577112
-0.715926
0.896987
-0.0131857
-0.0388364
0.425006
0.510817
0.559343
0.454466
0.822653
-0.0260028
-0.00233275
0.544943
-0.0438972
-0.609178
0.526644
0.141098
-0.910894
0.355436
-0.638832
-0.00443461
0.473112
0.156672
-0.632897
-0.590843
-0.24565
-0.4837
-0.304828
0.0128602
-0.624915
-0.707541
0.218499
0.0326799
0.00365768
-0.00155179
-0.639541
-0.416469
0.542553
0.0566505
0.480882
-0.00295255
0.611598
-0.0336389
0.569845
-0.0566066
-0.0315716
-0.511499
-0.555243
-0.102572
0.0483246
-0.484415
0.0553626
-0.57031
0.0635111
-0.546543
0.0692792
-0.516781
-0.636073
0.00157136
-0.636545
0.00112891
-0.0685709
0.0673334
-0.508199
-0.508773
0.00939423
-0.516871
-0.636495
0.00145447
-0.636981
0.000892895
-0.637375
0.000563115
-0.637711
0.000102046
-0.000527167
0.639435
-0.000915838
0.421407
0.0497442
-0.390773
0.386645
0.1608
-0.191984
-0.947671
-0.051913
-0.838756
-0.0417831
0.135336
-0.655835
-0.624647
-0.581787
-0.0292604
-0.533328
-0.0459128
0.0450151
-0.522209
-0.752135
0.000687255
-0.484453
-0.161206
0.323695
-0.76547
-0.675634
-0.424205
-0.475861
0.85995
0.0127641
0.415482
0.405632
0.265074
0.575413
-0.508712
1.06806
0.456571
0.831368
-0.000400997
-0.0818583
0.534536
-0.0517889
-0.519311
0.526402
0.134007
0.130855
-0.29473
-0.634963
-0.00542072
-0.542927
-0.0944042
0.276526
-0.179184
-0.488114
0.519705
0.0555287
-0.433376
0.129315
-0.320854
0.0039083
0.0105195
-0.653968
-0.283246
0.540899
-0.00336616
0.62756
-0.018915
0.640157
-0.103951
0.538644
-0.0607146
0.0663608
-0.593139
-0.00806353
-0.455111
-0.507944
-0.0389199
0.0200491
-0.465545
0.0390162
-0.545815
0.0533201
-0.530584
0.0615387
-0.510987
-0.636498
0.00157403
-0.636967
0.00159831
0.009685
-0.509064
-0.00287129
-0.495643
-0.532365
0.0169485
-0.637538
0.00146432
-0.638187
0.00121209
-0.638845
0.000760121
6.23276e-05
0.412486
0.00800607
0.389094
0.0472951
-0.24137
0.140905
0.261265
0.221553
-0.186398
-0.0411857
-0.906485
-0.0344824
-0.845459
0.0117434
0.0683248
-0.735903
-0.642164
-0.376225
-0.311852
0.115617
-0.446826
-0.315355
0.093634
-0.300488
-0.787352
0.000734835
-0.443283
-0.0404828
-0.102716
-0.373844
-0.076878
-0.620267
-0.486378
-0.177651
1.04812
0.734724
0.333332
0.290065
-0.272849
0.388416
0.0702105
0.484929
0.133349
0.898635
0.820535
0.0364139
0.726612
0.0120646
0.525956
-0.051343
-0.497911
0.52611
0.105809
-0.437326
0.0702696
-0.005444
-0.618244
-0.00619913
0.297069
-0.104371
-0.371883
-0.527855
-0.0204931
-0.0989307
-0.483588
0.00401743
0.0483327
-0.706319
0.600082
-0.00365508
0.645975
-0.0217804
0.625287
-0.0040449
0.508068
-0.0733749
0.520725
-0.055484
-0.093423
-0.538635
-0.00725152
-0.42781
-0.476179
-0.0256215
0.00965195
-0.449575
0.0321156
-0.52461
0.0488655
-0.517911
-0.0168115
-0.497046
0.542548
-0.513808
-0.0271416
0.0117569
0.0242081
-0.516323
-0.00451323
-0.466921
-0.477945
-0.0343988
-0.447589
-0.0291443
0.424793
-0.0122452
-0.0220354
0.390892
0.00620779
0.11482
-0.163825
0.18991
0.42338
0.225028
-0.1673
0.240984
-0.130313
0.0418679
-0.948353
0.0355847
-0.839176
-0.752519
0.000751385
-0.271672
0.0877035
-0.551935
-0.467907
0.101015
-0.454208
0.00999769
-0.413202
-0.430827
-0.0117207
0.00881902
-0.423146
0.0317436
-0.564307
-0.548057
-0.110581
0.789901
0.187905
0.58737
0.624716
0.110008
-0.468176
0.563637
0.23787
-0.0251288
0.483755
0.0814392
0.536839
-0.0511519
0.481611
-0.804699
0.715487
0.101277
0.0894349
0.52122
-0.0464535
-0.509048
0.52577
0.0890868
-0.584187
0.145409
0.125856
-0.563209
-0.00670227
0.273613
-0.3225
-0.0554835
-0.565096
0.0310422
-0.0593243
-0.411489
-0.484322
-0.0197591
-0.711342
0.200875
-0.195851
-0.0690225
-0.355519
-0.00681522
0.608354
-0.00484734
0.530405
-0.0263821
0.50752
-0.0601701
-0.049056
0.514792
-0.0347699
-0.529487
-0.008817
-0.409341
-0.45288
-0.0229531
0.00633013
-0.432952
0.0306671
-0.506412
-0.0140578
-0.520665
-0.464141
-0.0374183
0.609106
-0.494711
-0.141536
0.104539
0.00420673
-0.366589
-0.457816
-0.0712934
-0.434359
-0.0526014
0.416125
-0.0374778
-0.0402698
0.297586
0.132001
-0.159962
0.309249
0.0406228
0.21152
-0.146454
0.216049
-0.142364
0.230358
-0.0870576
0.193168
-1.14152
0.0429456
-0.688954
-0.710302
0.000729123
-0.42644
-0.00363583
-0.122847
0.0875773
-0.516665
-0.48974
0.0645743
-0.508784
0.00118856
-0.405572
-0.423945
-0.010921
0.0516273
-0.528357
-0.5312
-0.013047
0.759816
0.424796
-0.107343
0.472448
0.0556069
0.557094
0.0369009
0.525341
0.59958
0.0251362
0.555991
0.117654
-0.277573
0.422324
0.0931194
0.0382728
0.526922
-0.00172746
0.487415
0.286285
-0.0822478
-0.0267354
0.626315
-0.820419
0.729093
0.192603
0.126845
0.0480107
0.796662
0.51828
-0.0389642
-0.400053
0.525436
-0.0362956
0.622534
0.232415
0.367889
-0.68468
0.112882
-0.357946
-0.0238787
-0.500014
0.0467348
-0.007008
-0.42424
-0.544983
-0.00638754
-0.00565156
-0.545109
-0.146387
-0.0416071
0.510831
0.547486
-0.0219281
0.534118
-0.0529794
-0.0521513
0.506774
-0.0378561
-0.514584
-0.0100851
-0.392926
-0.432298
0.0258769
-0.0268745
-0.431955
-0.340158
-0.119776
0.00892836
-0.529398
-0.51809
-0.0399928
0.506742
-0.388754
-0.259525
-0.200004
0.633417
-0.318933
-0.367085
0.173369
-0.251055
0.511163
0.190195
0.15196
0.421278
-0.169135
0.21995
-0.150354
0.207914
-0.11992
-0.937464
-0.204057
0.305847
-0.731497
-0.263304
-0.405075
0.000620088
-0.425076
-0.000634831
-0.424391
-0.00319043
-0.0836676
0.075587
-0.508584
-0.508833
-0.00262218
-0.504974
-0.417812
0.00131867
0.0558337
-0.508604
-0.513222
-0.870493
-0.0669711
-0.887643
0.0171496
0.0185341
0.633938
-0.00779679
0.535852
0.0546771
0.539318
0.0368217
0.526792
0.552875
0.0282522
0.477437
0.0625413
0.387912
-0.00850704
0.0400227
0.485172
0.407323
-0.00215658
-0.0497574
0.575897
0.684393
-0.0580782
0.746016
-0.0616227
0.906464
-0.160448
0.362533
-0.343713
0.945397
0.0392689
0.685139
0.45286
0.94511
0.131907
0.68329
-0.516012
0.504261
-0.0298566
-0.0295402
0.525148
-0.193554
0.169377
0.748177
-0.518135
0.131002
-0.3731
0.00814581
-0.423193
0.0456878
0.545784
-0.00395014
-0.00571169
0.435862
-0.192061
-0.390189
-0.301283
0.21901
0.0471356
-0.0421462
0.499272
0.505816
0.560936
-0.0487469
-0.0855337
0.539328
0.0313622
-0.520069
0.0241079
-0.447478
-0.395693
0.0147326
-0.034808
-0.411879
-0.511256
-0.126611
0.00337979
-0.57277
0.47158
-0.557736
-0.23968
0.538529
-0.309737
-0.0385966
0.323404
0.25613
-0.144589
0.213825
-0.16301
0.20723
-0.14967
-0.839779
-0.0957739
-0.668838
0.000459074
-0.424756
0.000299717
-0.424661
-0.000365028
-0.422412
0.0014101
0.0122376
-0.0265654
-0.494257
-0.499217
-0.508328
0.00467337
0.0343729
-0.516233
-0.500796
0.523466
-0.325294
0.164361
-0.84851
-0.0582406
-0.307894
0.0595931
0.566549
0.0523633
0.538165
0.0494727
0.526667
0.0893544
0.47746
0.48538
0.020309
0.432915
0.0175381
0.401399
-0.00258313
0.0315223
0.451493
0.46714
-0.0315171
-0.207907
0.725726
-0.104374
0.363607
-0.407558
0.209589
-0.127325
0.667541
-0.00343816
-0.599657
-0.151614
-0.0925637
0.394545
0.682471
0.431327
0.416079
0.588437
0.154445
-0.0851496
0.685853
-0.521717
0.485481
0.00637965
-0.0261092
0.0297374
0.524885
0.486811
-0.0434765
-0.392375
0.100184
-0.367518
0.0401062
0.598806
-0.0418198
-0.202906
0.28283
-0.271985
-0.252482
0.234029
-0.321523
0.148159
-0.0990521
0.519334
-0.00848837
0.408708
0.575517
-0.0849364
0.0268904
-0.532227
0.0401956
-0.484294
-0.390305
-0.045385
-0.0721972
-0.294297
0.671493
-0.541342
-0.369832
-0.027888
0.245349
-0.479681
0.162258
-0.458251
0.46977
-0.252237
0.260112
-0.190877
0.21613
-0.171911
-0.764791
0.000178968
-0.42475
0.000453547
-0.42492
0.000559603
-0.424246
0.00146875
-0.527627
0.0207092
0.00412317
-0.0117456
-0.486634
-0.490421
0.052395
-0.541737
-0.460147
-0.436389
0.292856
-0.822837
-0.000194488
-0.0794833
0.144266
0.523654
0.539428
0.0612386
0.5264
0.140193
0.475828
0.0746778
0.434305
0.446754
0.00647015
0.421925
-0.00298755
0.0168814
0.432028
0.42062
-0.00538334
0.29718
0.0190662
0.604568
0.0562189
-0.315519
0.0887188
-0.424693
-0.0181507
0.582167
0.0189632
-0.523641
-0.0526653
-0.0340383
0.241962
0.594955
0.572891
0.400101
0.33912
0.190864
0.524727
0.438072
0.0402507
-0.630725
0.378801
0.258304
-0.131949
0.47984
-0.144516
-0.0724188
-0.0529406
0.52546
-0.339801
0.0724663
0.584489
-0.050791
0.242695
0.0698094
-0.221893
0.212105
-0.262418
0.174923
-0.297166
0.105524
-0.660974
0.4131
0.197083
-0.226576
0.269712
-0.0875797
-0.0175822
-0.56003
0.146236
-0.658418
-0.316266
-0.137008
-0.473555
0.247652
-0.455226
0.268311
-0.278221
0.193664
-0.383604
0.233419
-0.225544
0.219787
-0.194533
-0.424824
0.000253014
-0.425177
0.000709776
-0.425132
0.00144583
-0.557162
0.0310036
-0.0496448
-0.0710459
-0.365943
-0.519356
0.143596
-0.702916
-0.387597
-0.52922
-0.000761422
-0.424834
-0.000184545
-0.0745418
0.525777
0.526125
0.166619
0.499974
0.18199
0.368516
0.0308712
0.420315
0.431762
-0.00336635
0.00502357
0.424017
0.43006
-0.00368173
0.453018
-0.00389148
0.51313
-0.00389374
-0.439107
-0.00139435
-0.45517
-0.00208741
0.535806
-0.00371292
-0.50508
-0.00275506
-0.00331209
0.238915
0.52484
0.525095
-0.203385
0.596162
-0.288919
0.516722
0.0419084
0.0615739
0.418393
0.101697
-0.36528
0.479069
-0.189628
0.199509
0.515579
-0.358122
0.206039
-0.236653
0.18634
-0.257249
0.135006
-0.196077
0.251054
-0.245074
0.246081
-0.0873055
0.358953
-0.13831
-0.558728
-0.024262
-0.386504
-0.128397
-0.369421
0.116004
-0.377566
0.228648
-0.27345
0.158331
-0.313286
0.217592
-0.223349
-0.425359
0.000435389
-0.425658
0.00123546
-0.556067
0.000350368
-0.0955163
-0.658024
-0.583869
-0.16285
-0.678376
-0.424765
-0.000830332
-0.425462
-8.11721e-05
0.179381
0.513363
0.515531
0.173888
0.508076
-0.00405287
0.40344
0.00595035
0.419388
0.421549
-0.000897807
0.421217
-0.00335013
0.421625
-0.00429921
0.422292
-0.00456119
-0.424527
-0.0016332
-0.424128
-0.00248596
0.422973
-0.00439408
-0.423598
-0.003285
-0.00393688
0.208105
0.516498
0.52956
-0.250831
0.481713
-0.343872
0.27701
0.10877
0.136095
0.135958
0.444809
-0.127436
0.317141
-0.188442
0.198128
0.505893
-0.232951
0.202337
-0.227571
0.156663
-0.209342
0.227445
-0.216527
0.253266
-0.136054
0.278479
-0.213458
-0.473667
0.00441623
-0.274917
-0.0970572
-0.267947
0.0853608
-0.304596
0.192198
-0.248057
0.142197
-0.263285
-0.426015
0.000792499
-0.514762
-0.0400698
-0.105063
-0.71581
-0.688582
-0.492832
-0.399002
-0.42543
-0.000862608
-0.426237
0.000141198
0.179718
0.507534
0.506806
-0.0172699
0.521293
-0.00482312
0.414213
0.419988
-0.00149806
0.420849
-0.00421078
0.421777
-0.00522724
0.422671
-0.00545467
-0.425207
-0.00185624
-0.424791
-0.00290219
0.423489
-0.0052128
-0.424208
-0.00386763
-0.00465594
0.212534
0.502093
0.491263
0.133703
0.483968
-0.398462
0.379795
0.182443
-0.115351
0.296438
0.017127
-0.0030238
0.49179
-0.204126
0.178892
-0.183723
0.207042
-0.161078
0.230621
-0.127631
0.245033
7.46994e-05
-6.11369e-05
6.20526e-06
-1.97835e-05
-0.190801
-0.379924
0.00413319
-0.193689
-0.0748433
-0.188971
0.0716907
-0.23409
9.52209e-05
0.000135438
-0.000155969
-0.510885
-0.00308411
-0.401815
-0.326837
-0.119656
-0.246266
-0.349888
-0.275346
-0.337142
-0.225982
-0.363821
-0.426253
-0.000846619
-0.499433
-0.0113103
0.024438
0.499495
0.514702
-0.0224177
0.538888
0.418383
-0.00566817
0.420584
-0.00641117
0.422082
-0.00672558
0.423162
-0.00653437
-0.426022
-0.00208795
-0.425554
-0.00337026
0.424106
-0.00615698
-0.424913
-0.00450868
-0.00546253
0.0692572
0.555708
0.568326
0.156845
0.509566
-0.0614328
0.325877
-0.0864556
0.255263
-0.0258745
0.231743
0.362458
0.035138
0.430777
-9.48988e-06
9.30976e-05
-0.000144766
-4.61703e-05
5.23791e-05
-7.70345e-09
-0.154084
-0.300683
0.00311662
-0.125115
-0.0618803
-0.123974
1.00549e-05
0.00054021
-0.000455052
-2.50236e-05
0.000114287
0.0013039
0.00363809
-0.00493196
0.164471
-0.56937
-0.408632
-0.303141
-0.322094
-0.24765
-0.315474
-0.20715
-0.310755
-0.49436
-0.00592022
-0.47779
-0.10289
0.0432902
0.491343
0.535574
0.542821
-0.00960136
0.498824
0.0375855
0.451362
0.0407365
0.423188
0.0216402
-0.48713
-0.00931772
-0.451295
-0.0392057
0.413279
0.00375127
0.421771
-0.0139545
-0.0340322
0.315114
0.397439
0.10071
0.347423
-0.0221349
0.261557
0.256946
0.289912
0.033173
0.0986356
0.230649
0.110113
0.353837
-1.37684e-05
-7.78357e-05
8.21111e-05
9.71143e-05
4.83505e-05
-0.000104057
0.00010656
-2.52133e-06
-0.132813
-0.229751
-1.48186e-06
0.000516666
-7.70889e-05
8.731e-05
0.00162999
0.000852418
-0.00117853
0.000977055
0.00265954
-0.423042
-0.288731
-0.284006
-0.285737
-0.240816
-0.281808
-0.182706
-0.260862
-0.489687
0.00597673
-0.175495
-0.350437
0.106408
0.495048
0.632381
0.48538
0.184586
0.432054
0.0940625
0.406675
0.0470193
-0.550907
0.0519018
-0.432512
-0.1576
0.397052
0.0133749
0.401727
-0.0186303
-0.0648171
0.176548
0.321602
0.0620936
0.263194
0.135663
0.219918
0.190651
0.275808
0.128031
0.238281
0.207111
0.274758
5.35429e-05
-0.00055699
0.000489674
8.93929e-05
-7.01149e-05
0.000137813
1.70793e-05
-0.000125842
0.000126691
-3.37844e-06
-0.00160419
-0.00480921
0.0064669
0.0018834
0.000714387
-0.000967818
-7.38051e-06
0.000446951
-9.83918e-05
5.98542e-05
0.00123498
0.000594466
0.000749609
0.00190255
-0.30387
-0.268866
-0.270014
-0.256539
-0.217
-0.247514
-0.166072
-0.313293
-0.510532
-0.40243
-0.0562002
0.427722
0.274436
0.416057
0.196251
0.394944
0.115175
0.378478
0.063485
-0.296148
0.0732564
-0.179539
-0.364021
-0.0897269
0.368879
0.022974
0.365381
-0.0151315
-0.0634579
0.125418
0.258277
0.170352
0.240217
0.153819
0.247407
0.182685
0.225948
0.237734
0.219709
6.22275e-05
-0.000529829
0.000125193
-5.7511e-05
0.000146515
-2.75888e-06
-0.000127947
0.000128683
-4.12584e-06
-0.00211706
-0.000935472
0.00144829
-0.00123078
-0.00351623
0.00217145
0.000932812
-0.00122089
0.00143483
0.000514524
-8.29919e-06
0.000356854
-0.000103866
3.57653e-05
0.000950548
0.000393484
0.000577312
0.00131693
-0.303852
-0.235029
-0.249878
-0.223661
-0.420059
-0.197086
-0.355288
-0.120972
-0.212815
-0.0692162
0.3115
0.20067
0.346317
0.161435
0.3484
0.113092
0.34198
0.0699045
-0.291242
-0.101112
-0.3031
-0.0778687
0.333109
0.0318453
0.322837
-0.00485994
-0.0437208
0.162831
0.231206
0.182201
0.206578
0.223653
0.178258
-0.00259685
-0.00095567
0.00143556
4.96341e-05
-0.000454285
0.000134774
-4.57803e-05
0.000138949
-1.30454e-05
-0.000120264
0.000119749
-3.6305e-06
-0.00159288
-0.000573365
-0.000955014
-0.00251159
0.00240513
0.000681778
-0.000915463
0.00166795
0.000699668
0.00109966
0.000365437
-7.09562e-06
0.000260077
-0.000100557
1.6045e-05
0.000731938
0.000238837
0.000450495
0.000859339
-0.289876
-0.195031
-0.31411
-0.172851
-0.283404
-0.151678
-0.230476
-0.122144
0.268686
0.155637
0.297042
0.133078
0.306628
0.103506
0.30541
0.0711225
-0.242938
-0.0886499
-0.264764
-0.0560427
0.29755
0.039705
0.284562
0.00812846
-0.0239226
-0.00335947
-0.00179841
0.00256096
-0.00193127
-0.000617284
3.32899e-05
-0.000352815
0.000129522
-3.63724e-05
0.000123148
-1.64785e-05
-0.000105334
0.000105055
-3.37395e-06
-0.0012059
-0.000322493
-0.000749648
-0.00172867
0.0026069
0.000961447
-0.00116324
0.001854
0.000495731
0.00129433
0.000504948
0.000849165
0.000248201
-5.06548e-06
0.000164575
-9.24844e-05
3.17889e-06
0.000568528
0.00012063
0.00035291
0.000501361
-0.004438
-0.00304558
0.00412447
-0.00250871
-0.00122084
-0.00143328
-0.000389865
1.91453e-05
-0.000242462
0.00011467
-2.79269e-05
0.000100705
-1.21651e-05
-7.91586e-05
7.57846e-05
-0.000917253
-0.000154878
-0.000590194
-0.00111933
0.00256894
0.000145033
-0.000107067
0.00204709
0.000768317
0.00143347
0.000356612
0.00100288
0.000351218
0.000653794
0.000163086
-2.86406e-06
7.49408e-05
-7.59798e-05
0.000436904
3.63708e-05
0.000276905
0.000221591
-0.00574326
-0.00495872
0.00626481
-0.00340301
-0.0021512
-0.00186078
-0.000793293
-0.00107293
-0.000234192
9.41201e-06
-0.000137246
9.16933e-05
-1.89471e-05
6.36195e-05
-0.000697334
-4.77079e-05
-0.00046656
-0.000643358
0.00082916
-0.0066224
0.00836216
0.00203483
0.000157301
0.0016095
0.000592231
0.00111288
0.0002466
0.000779449
0.000225384
0.000503801
9.64018e-05
-1.03911e-06
0.00032583
-1.29126e-05
-0.00775275
-0.0120646
0.0140733
-0.00457682
-0.00378292
-0.00256665
-0.00144522
-0.00137085
-0.000495255
-0.00079479
-0.000136757
2.4651e-06
-4.80553e-05
4.46723e-05
-0.000529335
1.51362e-05
-0.00036437
-0.000276522
-0.000244906
-0.00288145
0.00395548
0.000583609
-0.00517122
0.00161902
0.000147822
0.00127449
0.000430602
0.0008622
0.000164007
0.000600824
0.000128096
0.000374856
4.76515e-05
0.00020764
-0.000220552
-0.0066874
0.00473423
-0.00579783
-0.00646685
-0.0101753
-0.00359568
-0.00274992
-0.00191054
-0.000905383
-0.00100859
-0.000280892
-0.00059191
-7.42299e-05
-3.38304e-06
-0.000385387
3.62441e-05
-0.000480492
-0.000165093
0.000400684
-0.000271547
-0.0020263
0.000392683
-0.00394496
0.00128783
0.000134482
0.00100592
0.000286655
0.000669957
9.50937e-05
0.000453944
4.8655e-05
0.00025529
-0.0063621
-0.000637226
0.000309875
-0.00559817
0.00386848
-0.00541232
-0.00836162
-0.00280236
-0.00185694
-0.00138689
-0.000527473
-0.000729722
-0.000142196
-0.000430083
-2.95917e-05
-0.000243661
0.000279905
-0.000466297
4.71591e-05
-6.13642e-05
-0.000414875
-2.17805e-05
-0.000278532
-0.00135503
0.000248858
-0.00290601
0.00102023
0.000120377
0.000787776
0.000168507
0.000504605
4.47278e-05
0.000303946
-0.0046547
0.0081511
-0.00985938
-0.00538173
-0.000855893
-0.00467116
0.00313257
-0.00451271
-0.00665171
-0.00214453
-0.00108221
-0.000979311
-0.000278273
-0.000518696
-5.24791e-05
-0.000273251
-0.000282089
0.000728877
-0.000913095
-0.000400561
3.28456e-05
-0.000352022
5.16765e-05
-0.00027104
-0.000835143
0.000139863
-0.00202597
0.000806471
0.000101964
0.000605594
6.70667e-05
0.000348673
-0.00293392
0.00692199
-0.00864282
-0.00386736
0.00663604
-0.00453134
-0.00100234
-0.00387597
0.00249743
-0.0037954
-0.00501765
-0.00158203
-0.000458137
-0.000669687
-0.000127748
-0.000325731
2.53175e-06
0.00100947
-0.00129408
-0.000237765
0.000566065
-0.000340779
2.16242e-05
-0.00029441
7.50402e-05
-0.000253168
-0.000441821
5.49052e-05
-0.00127488
0.000641035
6.69285e-05
0.00041574
-0.00145678
0.00433183
-0.005809
-0.00236101
0.00541537
-0.00318826
0.005292
-0.00381664
-0.00106338
-0.003212
0.00194225
-0.00321103
-0.00341071
-0.00109912
-1.55925e-06
-0.000453429
0.000294607
0.00103438
-0.00132645
2.05582e-06
0.000769641
-0.000198827
0.000424082
-0.000288228
1.54368e-05
-0.000242811
6.45295e-05
-0.000227023
-0.000159492
-2.49159e-05
-0.000609434
0.000482668
-2.24243e-06
0.00488695
-0.00634127
-0.00119298
0.00316368
-0.00188989
0.00411744
-0.00264332
0.00411802
-0.00321167
-0.00109195
-0.00263784
0.00141293
-0.00272568
-0.00181058
-0.000455035
0.000486235
0.00076154
-0.000953156
0.000247374
0.000789062
1.65003e-06
0.000569175
-0.000165228
0.000301069
-0.000240344
1.31163e-05
-0.000198799
3.60684e-05
-0.000190433
6.48523e-06
-0.000126765
0.00140463
0.00476173
-0.00616831
-3.05648e-06
0.00369716
-0.00097603
0.00224948
-0.00150616
0.00297985
-0.00216919
0.00307264
-0.00274759
-0.00101937
-0.0020961
0.000841616
-0.00226548
0.00049445
6.76953e-06
-1.49677e-05
0.000417577
0.000591343
0.000206633
0.000584053
1.31451e-06
0.000402619
-0.000136578
0.000197175
-0.000198103
1.26443e-05
-0.00015934
4.68381e-06
-0.00012028
0.00279295
0.00406432
-0.00545224
0.00115543
0.00360312
-1.95828e-06
0.00272346
-0.000798701
0.00154197
-0.00119783
0.00201091
-0.00178188
0.00210163
-0.00239417
-0.000778911
-0.00142407
0.000254588
-0.000212407
0.000452265
0.0004239
4.52195e-07
0.000354441
0.000443552
0.000171587
0.000413772
1.04938e-06
0.000265089
-0.000111433
0.000110296
-0.000157446