/*--------------------------------*- C++ -*----------------------------------*\
  =========                 |
  \\      /  F ield         | OpenFOAM: The Open Source CFD Toolbox
   \\    /   O peration     | Website:  https://openfoam.org
    \\  /    A nd           | Version:  8
     \\/     M anipulation  |
\*---------------------------------------------------------------------------*/
FoamFile
{
    version     2.0;
    format      ascii;
    class       volScalarField;
    location    "0.012";
    object      p;
}
// * * * * * * * * * * * * * * * * * * * * * * * * * * * * * * * * * * * * * //

dimensions      [0 2 -2 0 0 0 0];

internalField   nonuniform List<scalar> 
656
(
-5.4342e-08
-0.235212
1.71884
-0.770255
0.188776
1.72272
-1.13531
-1.53747
2.0426
1.73029
1.78932
-0.42104
0.385438
1.74056
2.02404
2.25882
1.66041
1.61147
2.266
2.41033
1.82832
1.84736
1.81273
1.84104
-0.0490513
0.615765
1.76873
2.00904
2.25258
1.87002
1.89286
2.59823
2.41354
2.40746
2.59728
2.75648
2.18238
2.19803
2.16361
1.80871
1.87572
0.29924
0.819451
1.8062
2.00124
2.24847
2.21182
2.224
2.94769
2.75714
2.59941
2.40571
2.59644
2.75548
2.94713
3.12692
2.19302
2.20706
2.21839
2.14759
2.17842
1.83038
1.99847
2.24494
2.22842
2.23702
3.12783
2.94679
2.75752
3.45009
2.40437
2.59546
2.75353
2.94484
3.1243
2.22102
2.23103
2.23348
2.23347
1.9916
2.23842
2.23307
2.23278
3.70319
3.44793
3.12604
2.9453
3.44796
3.65145
4.90625
2.39999
2.59543
2.75003
2.94384
3.12295
2.13988
2.13522
2.13581
2.13731
2.13865
2.13962
5.4503
5.16697
3.7459
3.43772
3.12245
3.45162
3.61091
4.67328
5.06236
2.17357
2.15866
2.15031
2.14371
2.13742
2.13191
3.52638
5.8891
5.39257
3.77894
3.42289
3.4644
2.20648
2.19528
2.18475
2.17589
2.16807
2.16116
3.60209
3.61076
6.30876
5.60597
3.7979
3.59764
2.30265
2.28969
2.27838
2.26893
2.26051
2.25344
3.25946
3.60497
3.70944
6.75394
5.86117
3.26165
2.40624
2.39601
2.38572
2.37679
2.36909
2.36263
3.19585
3.25919
3.6021
3.82151
7.24979
3.20348
3.14237
2.4915
2.49247
2.4879
2.47885
2.46943
2.46143
3.13656
3.18831
3.25806
3.59159
3.90826
3.13069
2.55865
2.58335
2.57901
2.56605
3.12725
3.1301
3.18089
3.25456
3.57667
3.12357
3.1942
2.45054
2.44284
3.12943
3.1215
3.12275
3.12451
3.17266
3.24907
3.17574
3.19735
3.20937
3.13268
3.12848
3.11875
3.11898
3.11916
3.16462
3.16384
3.17734
3.20087
3.20948
3.30366
3.13659
3.13224
3.12721
3.1167
3.11563
3.11427
3.15686
3.16446
3.17823
3.20352
3.21874
3.33957
3.13807
3.1364
3.13181
3.12643
3.11502
3.11269
3.15128
3.15694
3.1646
3.1785
3.20528
3.22726
3.13861
3.1381
3.13646
3.13168
3.12588
3.1136
3.14839
3.151
3.15676
3.16447
3.17855
3.20626
3.13998
3.13843
3.13817
3.13662
3.13168
3.12543
3.14831
3.14824
3.1507
3.15647
3.16423
3.17855
3.14172
3.13985
3.1383
3.13826
3.13679
3.1317
3.14389
3.1459
3.14849
3.14806
3.1504
3.15616
3.16404
3.14168
3.13976
3.13822
3.13834
3.13692
3.14388
3.14605
3.14864
3.14792
3.15011
3.15595
3.14163
3.13967
3.13816
3.13841
3.14391
3.1462
3.14873
3.14782
3.14988
3.14159
3.13959
3.13812
3.14393
3.14631
3.1488
3.14773
3.14155
3.13952
3.14394
3.14642
3.14885
3.14151
3.14395
3.14651
0.626412
0.921835
2.14936
2.07509
1.85624
1.8281
1.85118
1.38805
1.48296
1.26688
1.81155
1.87596
2.17945
2.17419
2.20514
2.19737
2.14434
2.11456
2.04173
1.98363
1.76201
1.57635
1.92534
1.84678
1.99723
2.013
1.9113
2.15236
2.15645
2.18242
2.19237
2.20605
2.16637
2.12472
2.12679
2.02293
1.96291
2.15304
2.23893
2.12179
2.39464
2.29607
2.17165
2.11425
4.55104
4.76868
3.42848
2.60085
2.49333
3.27278
3.11701
2.75054
2.70882
3.06147
2.94936
2.89039
2.19496
2.17265
2.18398
2.23171
2.27415
2.27494
2.25857
2.23995
2.30133
2.19935
2.49084
2.43084
2.33472
2.3476
4.04937
3.60719
3.54844
4.05406
3.87471
3.50124
3.37211
3.38481
3.25666
2.69352
2.59286
3.17304
3.06632
2.97257
2.89608
2.81252
2.21328
2.23464
2.25449
2.31704
2.33683
2.40893
2.42421
2.61697
2.4757
2.41955
2.71074
2.53644
2.48587
3.73883
3.61421
3.55969
3.59181
3.52365
3.44733
3.31348
3.25307
3.14367
3.04091
2.96054
2.82589
2.77736
2.31122
2.33074
2.34803
2.43837
2.4521
2.50587
2.53474
2.66344
2.61027
2.86599
2.79686
2.65643
2.60693
3.25556
3.3871
3.40045
3.43297
3.35909
3.27016
3.19149
3.11933
2.9523
3.06073
2.9741
2.41526
2.61901
2.45878
2.46762
2.51687
2.52524
2.58875
2.90802
2.75058
2.79613
2.93355
2.66094
2.76732
2.74109
2.92983
3.19755
3.22323
3.03459
3.00389
3.10469
3.06185
3.25349
3.30601
3.27588
3.04968
3.02996
3.23587
3.09009
3.09671
2.50771
2.68563
2.60927
2.6618
2.55548
2.5562
2.58932
2.80238
2.86773
2.91396
2.95967
2.73976
2.80826
2.76635
2.95889
3.01186
3.06209
3.05523
3.10991
3.15203
3.13498
3.0939
3.09501
3.13902
3.13777
3.151
3.19783
3.08787
3.1052
3.0773
3.14145
3.12086
3.15466
3.12694
3.1271
3.13448
2.63196
2.54552
2.60357
2.70457
2.72442
2.61359
2.62287
2.698
2.97498
2.84744
2.88564
2.74352
2.84708
3.00661
2.99423
3.05625
3.08277
3.10714
3.14267
3.14902
3.19748
3.21691
3.21597
3.19353
3.16858
3.1895
3.15388
3.20149
3.18619
3.19178
3.15707
3.13798
3.1329
3.09401
3.15061
3.15853
3.17782
3.13039
3.12721
3.11099
3.12004
3.11999
3.12178
3.14336
3.22737
2.55667
2.46546
2.53206
2.65263
2.67508
2.73957
2.88189
2.87448
2.90768
3.11186
3.01636
3.02791
3.24413
3.15916
3.13648
3.27473
3.25042
3.32332
3.1758
3.15235
3.17946
3.17074
3.17495
3.12692
3.12859
3.1533
3.13558
3.14301
3.12593
3.11701
3.137
3.1378
3.13269
3.13605
3.14354
3.33363
3.16776
3.07282
3.02865
3.03394
3.00037
2.83607
3.03126
3.27415
3.13168
3.13135
3.16603
3.15586
3.16528
3.15721
3.16362
3.13426
3.13473
3.15494
3.14631
3.13863
3.13451
3.1426
3.12978
3.44949
3.13709
3.13645
3.13607
3.13746
3.1376
3.1379
3.15692
3.14743
3.15806
3.15508
3.15716
3.13722
3.14324
3.1383
3.14721
3.14965
3.13885
3.14065
3.13828
3.13972
3.13854
3.13949
3.15198
3.14908
3.15149
3.15161
3.15029
3.14002
3.14287
3.14587
3.14489
3.14913
3.14851
3.1398
3.141
3.13961
3.14068
3.14808
3.14821
3.14663
3.14262
3.1454
3.14388
3.14813
3.14714
3.14168
3.14264
3.14397
3.14612
3.14497
)
;

boundaryField
{
    movingWall
    {
        type            zeroGradient;
    }
    fixedWalls
    {
        type            zeroGradient;
    }
    frontAndBack
    {
        type            empty;
    }
    defaultFaces
    {
        type            empty;
    }
}


// ************************************************************************* //
