/*--------------------------------*- C++ -*----------------------------------*\
  =========                 |
  \\      /  F ield         | OpenFOAM: The Open Source CFD Toolbox
   \\    /   O peration     | Website:  https://openfoam.org
    \\  /    A nd           | Version:  8
     \\/     M anipulation  |
\*---------------------------------------------------------------------------*/
FoamFile
{
    version     2.0;
    format      ascii;
    class       volScalarField;
    location    "0.012";
    object      p;
}
// * * * * * * * * * * * * * * * * * * * * * * * * * * * * * * * * * * * * * //

dimensions      [0 2 -2 0 0 0 0];

internalField   nonuniform List<scalar> 
424
(
-2.97576e-06
0.0605746
0.0134104
0.101368
0.0985436
0.247549
0.086308
0.0331145
0.276291
0.490951
0.455132
0.466642
-0.00751503
-0.164611
0.50342
0.744953
0.499231
0.504238
-0.426743
-0.196932
0.744113
0.997664
0.666343
0.666996
-0.679345
-0.441732
-0.366301
-0.380098
0.983431
1.25641
1.45463
1.52253
0.846946
0.845115
-3.52408
-0.894224
-1.11048
-1.38024
-0.682139
-0.412794
-0.417404
1.22389
1.41172
1.50964
1.4167
1.0074
1.00506
-2.89043
-2.67229
-0.892194
-1.12314
-1.1756
-0.579972
-0.581016
1.43339
1.47793
1.04213
1.03861
-2.29036
-1.1535
-0.766637
-0.764452
1.5221
1.67489
-1.07419
-0.637931
-0.957403
-0.956882
1.92035
1.70718
-0.0288486
-0.613117
-1.03874
-1.06299
2.17534
1.93299
1.87568
1.88719
0.719318
7.94812e-05
4.37171
2.39793
1.46462
2.10165
2.68405
5.23331
2.86398
2.60365
2.17314
1.93269
1.93767
0.724706
-0.378816
3.94367
2.39103
1.45044
2.0779
2.56743
4.51652
2.62478
2.61531
2.09769
2.0984
-0.166009
-0.404474
2.28838
2.28617
0.386667
-0.166228
2.48537
2.48994
0.969477
0.386142
2.58501
2.61581
1.54659
0.968367
1.79365
1.54139
1.81154
0.127693
0.036448
0.0477402
0.065991
0.0857218
0.160794
-0.0312937
0.00894543
0.215756
0.30493
0.320769
0.150939
0.170817
0.210657
0.326389
0.297207
0.290514
0.433406
0.440054
0.435905
0.0507199
-0.00159575
0.0612931
0.0337655
-0.0247987
-0.0654508
-0.0494379
-0.159781
-0.0831819
-0.185336
-0.00836523
0.0428389
0.0733172
0.118084
0.288825
0.169286
0.359353
0.350263
0.477935
0.506142
0.5753
0.503801
0.591608
-0.0473499
-0.0476504
-0.18673
-0.212265
-0.235926
-0.260967
-0.272335
-0.05504
-0.274623
-0.0969336
-0.218535
0.636664
0.633461
0.746099
0.778941
0.672295
0.779682
-0.299733
-0.288291
-0.443613
-0.339461
-0.399484
-0.366824
-0.349553
0.882509
0.882867
0.981825
0.958662
1.05356
0.850779
0.943613
-0.549669
-0.677684
-0.503584
-0.557681
-0.419303
-0.516088
1.12942
1.14435
1.20574
1.20878
1.27145
1.21971
1.10977
1.18422
1.00625
1.08396
-0.796514
-0.88927
-0.701015
-0.785331
-0.585782
-0.705348
1.32487
1.30229
1.31431
1.35772
1.38878
1.36882
1.36766
1.3806
1.38567
1.48085
1.48821
1.44821
1.19207
1.2752
1.0536
1.19152
1.35539
1.3862
1.45379
-1.26835
-1.65588
-2.50682
-2.10612
-1.02507
-1.12034
-1.23036
-1.02031
-0.880174
-0.949897
-0.771347
-0.880248
-1.14949
-1.26419
1.49612
1.44268
1.45311
1.4474
1.50907
1.45096
1.468
1.51868
1.55854
1.58392
1.67666
1.33919
1.42808
1.51578
1.49155
1.15997
1.27004
-1.49674
-1.42812
-1.65523
-1.23495
-1.09411
-1.11168
-1.15858
-1.02192
-1.08255
-0.953717
-1.03376
-0.863274
-1.20287
-1.10655
-1.07771
-1.12444
-1.23117
1.56224
1.61567
1.68819
1.55716
1.72817
1.72305
1.74851
1.77351
1.56584
1.75963
1.6097
1.72051
-0.838305
-0.731603
-0.961447
-0.60434
-0.700836
-0.566057
-1.11115
-1.11649
-0.746508
-0.758839
-1.04658
-1.14208
-1.04123
-1.08352
-1.24944
-1.17829
-1.06086
-0.757852
1.7713
1.78401
1.93524
1.85674
1.89992
1.86476
1.86179
-0.404697
-0.407833
0.0199728
-0.360263
-0.0629903
-0.40698
-0.349483
-1.40704
-1.3144
-1.09397
-1.2264
-1.17042
-1.5356
-1.49756
-1.20404
2.05951
2.17549
2.00483
2.05831
1.93576
2.02053
0.305383
0.728971
0.0718394
0.319101
-0.162302
0.140434
-1.12515
3.70457
4.05052
2.30827
2.38711
2.1856
2.30588
2.10358
2.19732
1.13519
1.44264
0.797759
1.12704
0.410761
0.784869
2.56904
3.12824
2.52705
2.61104
1.8815
2.06845
2.37165
2.72358
2.99913
2.74051
3.20321
2.63547
2.51784
2.39666
2.47143
2.28781
2.38861
1.89758
1.42255
1.51487
0.971796
1.34213
2.27664
2.9138
2.65637
2.61666
2.1646
2.19433
2.79322
2.66765
2.69481
2.67758
2.57829
2.59408
2.47686
2.58536
1.77508
2.02264
1.55463
1.75599
2.38617
2.64193
2.62964
2.64207
2.13945
2.34597
2.7596
2.62358
2.67287
2.60134
2.67186
1.81837
2.10356
2.61646
2.96451
2.86929
2.52546
2.56114
3.10155
3.05003
2.62211
2.52849
)
;

boundaryField
{
    movingWall
    {
        type            zeroGradient;
    }
    fixedWalls
    {
        type            zeroGradient;
    }
    frontAndBack
    {
        type            empty;
    }
    defaultFaces
    {
        type            empty;
    }
}


// ************************************************************************* //
