/*--------------------------------*- C++ -*----------------------------------*\
  =========                 |
  \\      /  F ield         | OpenFOAM: The Open Source CFD Toolbox
   \\    /   O peration     | Website:  https://openfoam.org
    \\  /    A nd           | Version:  8
     \\/     M anipulation  |
\*---------------------------------------------------------------------------*/
FoamFile
{
    version     2.0;
    format      ascii;
    class       volVectorField;
    location    "0.012";
    object      U;
}
// * * * * * * * * * * * * * * * * * * * * * * * * * * * * * * * * * * * * * //

dimensions      [0 1 -1 0 0 0 0];

internalField   nonuniform List<vector> 
424
(
(-0.0027522 -0.000113796 6.72394e-26)
(-0.012945 0.00089861 0)
(-0.0118205 0.0025155 2.09743e-23)
(9.54228e-05 0.00292833 -9.93814e-25)
(-0.0411994 0.00455108 -2.53283e-23)
(-0.0202968 0.000784713 -3.36711e-23)
(-0.00271228 0.0124113 2.73253e-24)
(-0.000926287 0.0136304 -3.27704e-25)
(-0.0596978 0.00235331 -3.58618e-23)
(-0.0228291 0.000288797 3.09076e-23)
(-0.0620964 0.00196469 9.17099e-23)
(-0.0214687 0.000390606 0)
(-0.00459067 0.0435996 1.40277e-24)
(-0.00088619 0.0214491 0)
(-0.0650168 0.000555782 3.27799e-23)
(-0.0227145 -4.23107e-05 1.74147e-23)
(-0.0521643 0.000616535 0)
(-0.0175946 7.08674e-05 0)
(-0.000336949 0.0239478 0)
(-0.0024324 0.0633377 -2.86851e-23)
(-0.0642186 1.5432e-05 3.47519e-23)
(-0.0227745 -0.000333501 -1.86515e-23)
(-0.0505776 0.000227609 0)
(-0.0175395 5.47723e-05 0)
(1.16709e-05 0.0231269 1.31703e-23)
(-0.000268558 0.0680315 2.58858e-23)
(-0.00202286 0.0608083 -3.60913e-23)
(-0.000351047 0.0209956 -3.73484e-23)
(-0.065332 -0.000385293 5.83499e-23)
(-0.0203705 -0.000779314 0)
(-0.0132581 -0.00089693 -1.29907e-22)
(-0.00286808 0.000132989 0)
(-0.0468442 -8.48326e-06 -1.05289e-22)
(-0.0161262 3.95778e-05 9.84563e-23)
(-0.0221607 0.0478237 6.84373e-23)
(0.000231611 0.02368 0)
(8.45312e-05 0.0266122 -2.26148e-22)
(0.00339171 0.0613534 2.32973e-22)
(6.93532e-05 0.065319 2.81503e-23)
(-0.000403467 0.0531984 3.92395e-24)
(-1.41714e-05 0.0179486 -3.85156e-24)
(-0.0605793 -0.00230159 -1.04634e-22)
(-0.042565 -0.00479995 1.31701e-22)
(-0.0127492 -0.00280108 0)
(0.000116956 -0.00315567 -2.96303e-22)
(-0.043812 -0.000252336 3.473e-22)
(-0.0145328 -2.97809e-05 0)
(-0.106381 0.151412 -1.8928e-22)
(0.809043 0.0279265 -5.06204e-23)
(-0.000645315 0.0682062 -1.63248e-23)
(-0.00601909 0.0769743 0)
(-0.00550884 0.16029 -3.60994e-24)
(-0.000223757 0.0512236 0)
(-4.25753e-05 0.0178309 0)
(-0.00361568 -0.0136685 5.94801e-23)
(-0.00116188 -0.0150604 2.59237e-22)
(-0.0473248 -0.000554189 0)
(-0.0157562 -0.000132272 0)
(0.404267 0.118368 1.42752e-22)
(0.859406 -0.00379695 -1.21912e-23)
(0.000131803 0.0482896 -9.36055e-23)
(-1.0117e-05 0.0168119 8.87279e-23)
(-0.0059046 -0.0472344 0)
(-0.000958225 -0.023543 0)
(0.544388 0.0123223 1.59945e-22)
(0.879481 -0.00217858 0)
(0.000339216 0.0458685 -8.07146e-23)
(8.8493e-05 0.015755 7.42768e-23)
(-0.000323016 -0.0259094 6.01019e-23)
(-0.00271987 -0.0683642 -1.85518e-23)
(0.877345 -0.00129351 -1.34814e-23)
(0.615843 0.00187189 -1.17668e-22)
(-0.00238374 0.0494677 0)
(-0.000239484 0.0190308 0)
(7.73944e-05 -0.0255699 4.71489e-23)
(-0.000394507 -0.0726857 1.90522e-23)
(-0.00161997 -0.0582061 -3.92581e-22)
(-0.000288154 -0.020033 0)
(0.875954 -0.000319808 1.27361e-23)
(0.626254 -0.000696896 -5.09486e-23)
(0.826305 -0.0268266 0)
(0.000328731 -0.0253677 -9.07477e-23)
(0.878474 0.00140956 0)
(0.883616 0.00207308 0)
(0.86382 0.00376749 0)
(-0.0194484 -0.0487056 0)
(0.00360144 -0.066059 -4.7765e-22)
(0.000109655 -0.0275591 5.91966e-22)
(0.000285494 -0.0716001 4.35411e-23)
(-0.000484013 -0.0509923 0)
(-3.14526e-05 -0.0172218 0)
(0.629111 -0.000735816 -2.06757e-23)
(-0.111742 0.00175472 -4.15721e-23)
(0.445492 -0.114891 9.63929e-22)
(-0.000450227 -0.0729212 -8.88787e-23)
(0.63112 0.00125257 -1.23366e-22)
(0.633062 -0.00121298 2.56518e-22)
(0.562816 -0.0103679 -1.24071e-21)
(-0.108864 -0.151861 -1.80131e-22)
(-0.00681642 -0.171493 6.97326e-22)
(-0.00680927 -0.0798446 -5.66127e-22)
(4.17073e-05 -0.0506529 -3.08644e-23)
(3.03438e-05 -0.0176161 2.99322e-23)
(-0.0996267 2.61488e-06 0)
(-0.0426334 -8.33062e-05 -4.01503e-23)
(0.000353219 -0.0524657 -1.38147e-22)
(5.58608e-05 -0.0183136 -1.31344e-22)
(-0.1018 -0.000333567 2.36289e-23)
(-0.035801 -7.7366e-06 0)
(-4.62419e-05 -0.0514284 9.94259e-23)
(8.6956e-05 -0.0179579 -9.47838e-23)
(-0.0949959 -0.000139766 -2.46345e-22)
(-0.0371041 -0.000115133 -2.23732e-23)
(-0.00314221 -0.0535743 0)
(-0.000272038 -0.0213299 0)
(-0.0877281 0.000356844 1.347e-22)
(-0.0344299 -6.8248e-05 0)
(-0.0994221 -0.00150997 0)
(-0.0310429 2.29322e-06 1.20499e-22)
(-0.0368663 -8.06966e-05 0)
(-0.0684357 0.0145487 2.52232e-24)
(-0.0207657 0.0101395 0)
(-0.0545991 0.0300324 0)
(-0.0103694 0.0217401 -1.55481e-24)
(-0.111461 0.0921228 2.43441e-23)
(-0.135068 0.0639079 4.5956e-22)
(-0.0747482 0.117674 3.73896e-23)
(-0.0929348 0.10099 -1.09811e-23)
(-0.133149 0.0541568 -7.73451e-22)
(-0.137355 0.0323857 -2.53264e-23)
(-0.118618 0.0248259 -6.93666e-22)
(-0.104632 0.024642 -1.906e-22)
(-0.124 0.0406615 -6.17711e-22)
(-0.141219 0.0438297 8.07086e-22)
(-0.148251 0.0212177 -5.83765e-22)
(-0.15355 0.0235967 1.05391e-22)
(-0.0961416 0.00577361 1.79462e-22)
(-0.141687 0.00640941 1.21077e-21)
(-0.0956026 0.00478855 2.52328e-22)
(-0.117693 0.00250616 3.31531e-22)
(-0.0311842 0.0553066 2.45134e-23)
(-0.087957 0.0963085 0)
(-0.0607257 0.057571 -2.02914e-23)
(-0.0860712 0.0775852 0)
(-0.0627812 0.11817 5.74296e-23)
(-0.0646869 0.127294 -1.47887e-22)
(-0.0162781 0.073885 -8.90574e-25)
(-0.0432962 0.141945 2.18769e-22)
(-0.0606283 0.116471 -4.967e-23)
(-0.0408847 0.136355 2.80586e-22)
(-0.0537881 0.0913787 -7.37973e-23)
(-0.0855154 0.0809813 -2.59927e-23)
(-0.0954309 0.0580496 0)
(-0.0836211 0.0314789 1.19701e-22)
(-0.0205938 0.00210899 -2.87491e-22)
(-0.0577138 0.012306 3.31682e-22)
(-0.136611 0.00782 0)
(-0.152252 0.00825471 0)
(-0.160338 0.00211591 -8.40544e-22)
(-0.107584 0.000678392 -1.53075e-21)
(-0.154828 0.0023367 2.76656e-21)
(-0.0891769 0.00137924 6.97513e-22)
(-0.124304 -0.000215597 7.3376e-22)
(-0.0296338 0.111626 -3.14515e-23)
(-0.0378017 0.130003 3.06366e-23)
(-0.0293352 0.151899 -2.35749e-22)
(-0.00554878 0.101316 7.99646e-22)
(-0.0180484 0.155871 1.17216e-22)
(-0.0225589 0.130766 5.03352e-23)
(-0.0129479 0.144472 -2.96895e-22)
(-0.0293449 0.0785694 1.84467e-22)
(-0.0179732 0.114762 -1.13987e-21)
(-0.0125449 0.056835 0)
(-0.00212909 0.0203307 0)
(-0.145068 -0.000745023 8.66306e-22)
(-0.159013 1.90684e-05 -2.58302e-21)
(-0.109947 0.000608165 -9.15326e-22)
(-0.152418 0.000143144 2.8999e-21)
(-0.0872092 -3.48015e-05 -1.14413e-21)
(-0.124862 -0.000424015 1.43177e-21)
(-0.00499453 0.140066 -7.15141e-22)
(-0.0060855 0.155396 5.25106e-22)
(0.000893085 0.110609 0)
(-0.00431438 0.137635 0)
(-0.00171282 0.160073 -1.05714e-21)
(-0.00348855 0.0906704 7.76352e-22)
(-0.000399173 0.11555 0)
(-0.144987 0.00156833 8.69986e-22)
(-0.15745 0.000851687 2.02516e-22)
(-0.11301 0.000548498 1.25464e-21)
(-0.152064 -0.00176191 -1.91164e-21)
(-0.156774 -0.0031291 -2.01503e-21)
(-0.0839858 -0.000671597 -2.26086e-21)
(-0.117839 -0.000671636 9.83207e-22)
(0.00296486 0.143811 7.72043e-22)
(0.000808935 0.106031 -8.17546e-22)
(-0.000769674 0.154956 2.56423e-21)
(0.00159878 0.159394 -1.98192e-21)
(-0.00067994 0.0917278 0)
(0.000529008 0.125545 0)
(-0.138057 -0.00571123 -1.4434e-21)
(-0.154356 -0.00801817 0)
(-0.153677 -0.0238066 1.76226e-21)
(-0.097893 -0.00563983 1.04845e-21)
(-0.144718 -0.0304014 -1.96264e-21)
(-0.146858 -0.0283735 -3.24375e-21)
(-0.133461 -0.00648737 1.95967e-21)
(-0.139004 -0.0209794 1.78966e-21)
(-0.0834924 -0.000781282 -2.94644e-22)
(-0.106723 0.000271956 0)
(-0.000108778 0.143404 -4.31808e-22)
(-0.0037652 0.114287 0)
(0.00075332 0.153705 0)
(-0.000229468 0.157773 3.30337e-22)
(-3.02467e-05 0.0864693 0)
(0.00156116 0.124143 0)
(-0.128512 -0.056747 0)
(-0.138825 -0.0501894 -2.15733e-21)
(-0.138396 -0.0533554 2.91412e-21)
(-0.116502 -0.075584 0)
(-0.0675173 -0.0138403 0)
(-0.108387 -0.0236655 -1.20941e-21)
(-0.124165 -0.0300759 -2.27125e-21)
(-0.113823 -0.0587155 2.78773e-21)
(-0.124596 -0.0702094 -1.47494e-22)
(-0.0554662 -0.0288148 -6.97709e-22)
(-0.021858 -0.0101788 0)
(-0.0118035 -0.0224962 2.14699e-21)
(-0.118956 -0.0290979 7.41175e-22)
(-0.122536 -0.0493282 -1.84044e-21)
(-0.0765075 -0.00132733 -1.31052e-21)
(-0.103502 -0.0233496 1.87267e-21)
(-0.102765 -0.062835 8.62987e-22)
(-0.1055 -0.0769123 0)
(-0.0911323 -0.0890733 1.57106e-21)
(-0.0331287 0.222546 3.18565e-24)
(-0.134271 0.289886 -2.99207e-21)
(-0.143211 0.22073 3.13831e-21)
(0.115385 0.184888 -2.54648e-21)
(-0.0164219 0.147386 1.44658e-21)
(-0.0188201 0.122476 -1.75158e-21)
(-0.0528517 0.188412 -8.93816e-22)
(-0.0176099 0.1564 -3.09655e-21)
(0.000695442 0.150909 -7.99095e-22)
(-0.00779208 0.154251 3.21798e-21)
(0.00105447 0.082332 0)
(0.00198565 0.116207 2.93432e-22)
(-0.069394 0.176586 4.25087e-21)
(-0.11291 0.173153 -1.32439e-21)
(-0.0932236 -0.103094 4.14403e-21)
(-0.110088 -0.0898592 2.46954e-21)
(-0.10847 -0.0919544 -3.32071e-21)
(-0.0654487 -0.0524082 5.29574e-22)
(-0.082133 -0.102511 0)
(-0.0865606 -0.0730864 2.46997e-22)
(-0.0324999 -0.0540274 -3.00091e-21)
(-0.0736418 -0.121806 -5.83374e-21)
(-0.0191664 -0.0760478 0)
(-0.0608633 -0.123072 2.04871e-21)
(-0.0432554 -0.137901 0)
(-0.0697832 -0.0241312 3.19061e-21)
(-0.0845338 -0.0543901 0)
(-0.0528462 -0.0931114 -4.67546e-21)
(-0.075887 -0.0831501 1.13903e-21)
(-0.0153824 -0.00125793 1.37585e-21)
(-0.0449978 -0.00829646 -5.50492e-21)
(-0.117416 0.227481 -5.36004e-22)
(-0.14384 0.187959 0)
(0.000185367 0.189045 1.98695e-21)
(-0.15524 0.0973012 -1.3011e-21)
(0.252368 0.0542404 9.7005e-22)
(-0.0299443 0.153511 2.02591e-21)
(-0.0544161 0.152845 -2.28438e-21)
(-0.00916703 0.128169 -1.68831e-21)
(-0.0208201 0.129484 2.91192e-21)
(0.000651046 0.0800513 1.36095e-21)
(-0.00657811 0.101991 -8.99122e-22)
(-0.177709 0.0112958 0)
(-0.123212 0.107252 -1.92916e-21)
(-0.158632 0.0738991 1.07135e-22)
(-0.165958 0.0364596 3.1591e-21)
(-0.0614575 0.11576 -1.23725e-21)
(-0.0976951 0.094711 1.20545e-21)
(-0.0539982 -0.125181 2.24782e-22)
(-0.0540267 -0.138544 5.04991e-22)
(-0.0408449 -0.147726 0)
(-0.0319538 -0.108764 -2.83811e-22)
(-0.00735862 -0.110791 1.89958e-23)
(-0.0246338 -0.152212 -3.5765e-21)
(-0.0266976 -0.1337 1.82412e-21)
(-0.0184256 -0.143856 -2.01971e-21)
(-0.0290753 -0.0814612 3.19719e-21)
(-0.0212634 -0.114862 -2.63986e-21)
(-0.0109735 -0.0537892 0)
(-0.00190154 -0.0189229 0)
(-0.0757872 0.051672 -4.58701e-22)
(-0.140307 0.0220208 1.66064e-21)
(0.0857508 0.0556994 -6.83516e-22)
(0.357827 0.0166246 1.70463e-21)
(-0.150305 0.0136486 0)
(-0.196148 0.00803036 0)
(-0.0201629 0.098993 -2.1112e-21)
(-0.0400832 0.0940545 0)
(-0.183238 -0.00912364 0)
(-0.181318 -0.00447064 0)
(-0.00719587 0.0742884 0)
(-0.00883433 0.0812483 -9.57879e-22)
(-0.13906 -0.00400166 0)
(-0.138025 0.0216952 -3.20298e-21)
(-0.0525739 0.0483911 0)
(-0.0941802 0.0521446 0)
(-0.110018 0.0272057 2.71673e-21)
(-0.165901 -0.01427 5.68855e-22)
(-0.0106677 -0.154569 2.50349e-21)
(-0.010013 -0.142314 0)
(0.000178023 -0.116172 -4.00871e-23)
(-0.00621908 -0.136877 0)
(-0.00306657 -0.158788 0)
(-0.00392144 -0.0892813 -3.49056e-21)
(-0.0023551 -0.114371 3.18378e-21)
(-0.0718139 0.0162042 0)
(0.0998546 0.0117269 -1.41382e-21)
(0.35702 0.00269284 0)
(-0.204356 0.00356454 -4.73758e-22)
(-0.180799 0.00890005 1.66959e-23)
(-0.154453 0.00506513 -2.53056e-22)
(-0.190032 0.0058938 1.31607e-22)
(-0.00759182 0.0216761 5.51773e-21)
(-0.0389217 0.0144168 -1.03126e-21)
(-0.0796118 0.00219793 -2.13506e-21)
(-0.0919478 -0.0179016 0)
(-0.0938509 -0.011005 0)
(8.38305e-05 0.00710213 1.74254e-21)
(-0.00123933 0.0169699 -6.56121e-21)
(-0.0699514 -0.0069959 0)
(0.00168234 -0.148603 -5.42412e-22)
(0.000368006 -0.116 3.97325e-23)
(-0.00180868 -0.153103 -4.61129e-21)
(0.000887409 -0.158851 4.2896e-21)
(-0.00130011 -0.0870757 0)
(0.000271014 -0.123188 -5.33305e-22)
(0.0733235 -0.00229525 0)
(0.345148 -0.00154179 0)
(-0.193606 -0.00147296 4.1354e-22)
(-0.121341 -0.00160864 -3.55432e-22)
(-0.160878 0.000247568 3.35693e-22)
(-0.20183 0.00679572 -5.45221e-22)
(-0.0266793 -0.00110141 0)
(0.127055 -0.184286 -5.74078e-21)
(-0.152425 -0.222695 9.79453e-21)
(-0.000251237 -0.146856 1.66883e-22)
(-0.00321701 -0.11794 0)
(0.000945651 -0.152691 3.94172e-21)
(-0.000310276 -0.157885 -2.87296e-21)
(0.000554382 -0.0846727 0)
(0.00213396 -0.127508 -1.0268e-21)
(0.0652365 -0.00062786 -3.80905e-23)
(0.338699 -0.00345127 -2.08493e-21)
(-0.215204 -0.00298646 -2.1204e-21)
(-0.129887 -0.0007606 -6.15277e-22)
(-0.163611 0.00163595 5.22063e-22)
(-0.209493 -0.00173993 0)
(0.254735 -0.0505283 -6.94606e-21)
(0.0154724 -0.160976 -6.3913e-21)
(-0.0151637 -0.148167 0)
(-0.0201321 -0.125761 0)
(0.106558 -0.00778027 -3.05508e-21)
(0.365647 -0.0148203 2.59576e-21)
(0.10918 -0.0549384 1.15577e-20)
(-0.0588978 -0.191409 0)
(-0.124301 -0.20871 9.16419e-21)
(-0.0380098 -0.23656 1.59636e-21)
(-0.153569 -0.295298 -2.58652e-21)
(-0.0722148 -0.171301 -8.07676e-24)
(-0.0156613 -0.155904 -3.83279e-21)
(0.000297671 -0.151881 1.6471e-21)
(-0.00649494 -0.153978 6.06537e-21)
(0.00110144 -0.0929507 -3.63842e-21)
(0.00034254 -0.125241 2.36257e-21)
(-0.0751562 -0.0134612 2.43975e-21)
(-0.195213 0.00238906 3.69453e-21)
(-0.191352 -0.00603444 -3.35134e-21)
(-0.154978 8.6158e-05 2.46305e-22)
(-0.191621 -5.11691e-05 0)
(-0.0847452 -0.0589829 -3.83474e-21)
(-0.163505 -0.159421 -2.61813e-21)
(-0.0487751 -0.149643 -6.37105e-21)
(-0.0292923 -0.15049 7.54471e-22)
(-0.152692 -0.0120206 0)
(-0.14006 -0.0221565 -9.92417e-22)
(-0.144755 -0.15604 -6.72515e-21)
(-0.0986754 -0.156738 8.66794e-21)
(-0.0825406 -0.109589 6.37535e-21)
(-0.0576585 -0.117076 0)
(-0.00826549 -0.122461 0)
(-0.0196277 -0.125068 -2.50786e-21)
(-0.00127661 -0.0868148 0)
(-0.00763239 -0.104931 0)
(-0.207577 0.000637678 2.79684e-21)
(-0.199451 -0.00272481 -5.39791e-21)
(-0.147344 0.00224908 -2.59433e-22)
(-0.183912 -0.00297409 -1.58163e-21)
(-0.175625 -0.0100292 5.1419e-21)
(-0.164003 -0.0593442 -4.44315e-21)
(-0.0221849 -0.0977249 1.50679e-21)
(-0.04026 -0.0956053 3.61587e-21)
(-0.192103 0.00847274 4.42421e-21)
(-0.173722 0.00953961 -1.78154e-22)
(-0.0514393 -0.0487652 -7.98119e-21)
(-0.0872384 -0.0612434 3.84306e-22)
(-0.122243 -0.0476685 1.4146e-21)
(-0.00765909 -0.0727547 0)
(-0.0109346 -0.0789011 -2.74967e-21)
(-0.147773 -0.00433028 -2.13922e-21)
(-0.172646 0.0108365 1.51233e-21)
(-0.0972891 0.0198989 1.4173e-21)
(-0.0101172 -0.0185696 0)
(-0.0406566 -0.00986239 3.54812e-21)
(-0.114605 0.0178949 1.5974e-22)
(-0.10411 0.000802714 0)
(-0.000104597 -0.00735856 0)
(-0.00255666 -0.0164717 0)
(-0.067051 0.00787657 -3.71338e-21)
(-0.024524 0.00132639 2.92257e-21)
)
;

boundaryField
{
    movingWall
    {
        type            fixedValue;
        value           uniform (1 0 0);
    }
    fixedWalls
    {
        type            noSlip;
    }
    frontAndBack
    {
        type            empty;
    }
    defaultFaces
    {
        type            empty;
    }
}


// ************************************************************************* //
