/*--------------------------------*- C++ -*----------------------------------*\
  =========                 |
  \\      /  F ield         | OpenFOAM: The Open Source CFD Toolbox
   \\    /   O peration     | Website:  https://openfoam.org
    \\  /    A nd           | Version:  8
     \\/     M anipulation  |
\*---------------------------------------------------------------------------*/
FoamFile
{
    version     2.0;
    format      ascii;
    class       volScalarField;
    location    "0.008";
    object      p;
}
// * * * * * * * * * * * * * * * * * * * * * * * * * * * * * * * * * * * * * //

dimensions      [0 2 -2 0 0 0 0];

internalField   nonuniform List<scalar> 
656
(
5.47862e-07
-0.235196
1.71257
-0.743645
0.18865
1.7186
-1.10957
-1.51222
2.04316
1.76031
1.81852
-0.39314
0.385256
1.73879
2.02698
2.28196
1.69052
1.64207
2.28713
2.45921
1.85822
1.8769
1.84319
1.86999
-0.0196575
0.616507
1.7695
2.01481
2.27822
1.8993
1.92194
2.66886
2.46121
2.45792
2.6687
2.85086
2.21078
2.22567
2.19294
1.8399
1.90394
0.328249
0.822626
1.81056
2.01023
2.27707
2.23877
2.25033
3.06285
2.85155
2.66945
2.45808
2.66884
2.84986
3.06132
3.2573
2.22816
2.24174
2.2528
2.17828
2.21466
1.84087
2.01156
2.27735
2.26257
2.27095
3.26015
3.06281
2.85194
3.59281
2.45927
2.66913
2.84794
3.05786
3.25238
2.2639
2.27385
2.27681
2.27724
2.0095
2.27475
2.27714
2.2771
3.83752
3.59288
3.26014
3.06204
3.58802
3.78323
5.04268
2.45791
2.67042
2.8447
3.05554
3.24865
2.18923
2.18421
2.18398
2.18483
2.18567
2.18629
5.5498
5.30383
3.88241
3.58475
3.25807
3.58923
3.73729
4.80667
5.16479
2.23145
2.2173
2.20859
2.20154
2.19498
2.1892
3.63939
5.98859
5.52922
3.91767
3.57179
3.57936
2.27578
2.26503
2.25454
2.24569
2.23794
2.23101
3.71626
3.72311
6.40865
5.74243
3.93873
3.71117
2.38006
2.36781
2.35693
2.3478
2.33957
2.33293
3.3767
3.72024
3.81919
6.85404
5.9975
3.3764
2.48815
2.47884
2.4693
2.46094
2.45373
2.44771
3.31051
3.37838
3.71787
3.93101
7.34981
3.31569
3.24977
2.57792
2.57866
2.57467
2.56662
2.55819
2.551
3.24547
3.30494
3.37861
3.70762
4.01648
3.23158
2.64885
2.67063
2.66712
2.65592
3.22876
3.24032
3.29907
3.37633
3.6929
3.21968
3.26504
2.56465
2.55813
3.22119
3.21773
3.22485
3.23576
3.29225
3.37199
3.25297
3.2678
3.27328
3.22202
3.22015
3.21509
3.22149
3.2313
3.2854
3.24569
3.25468
3.27109
3.27272
3.35413
3.22503
3.22146
3.21874
3.21304
3.21845
3.22718
3.24155
3.24654
3.25584
3.27374
3.2809
3.38509
3.22594
3.22465
3.22081
3.21776
3.21132
3.21575
3.2372
3.24191
3.24703
3.25643
3.27565
3.28871
3.22732
3.2258
3.2245
3.22047
3.21701
3.20985
3.23513
3.23731
3.24203
3.24722
3.2568
3.27686
3.22808
3.22721
3.22584
3.22449
3.22027
3.21639
3.23397
3.23509
3.23722
3.24201
3.2473
3.25709
3.22945
3.22814
3.22707
3.22593
3.22453
3.2201
3.23068
3.23236
3.23411
3.23494
3.23706
3.24196
3.24734
3.22945
3.22811
3.22697
3.22601
3.22457
3.23066
3.23229
3.23427
3.2348
3.2369
3.24191
3.22944
3.22808
3.2269
3.22607
3.23066
3.23235
3.23438
3.2347
3.23679
3.22943
3.22807
3.22685
3.23066
3.23241
3.23445
3.23463
3.22942
3.22806
3.23065
3.23245
3.2345
3.22941
3.23063
3.23249
0.648709
0.925851
2.18165
2.10299
1.88745
1.8602
1.8755
1.41489
1.49719
1.27675
1.82513
1.90923
2.21726
2.20843
2.2487
2.23757
2.18649
2.15336
2.07591
2.01459
1.78583
1.59115
1.95133
1.86201
2.01775
2.04276
1.94748
2.20139
2.20867
2.2275
2.2346
2.2542
2.21561
2.17363
2.1673
2.05527
1.99077
2.19438
2.27621
2.15051
2.45423
2.34419
2.21854
2.16316
4.67802
4.87964
3.56713
2.67632
2.56097
3.40804
3.24311
2.84596
2.79632
3.18524
3.06073
2.99757
2.25048
2.23359
2.24207
2.29488
2.3272
2.33901
2.31672
2.28881
2.35735
2.25612
2.5604
2.49146
2.40118
2.41002
4.1735
3.72662
3.68406
4.17073
3.9998
3.62622
3.50171
3.50388
3.38498
2.78822
2.68152
3.29399
3.18882
3.08501
3.00557
2.90372
2.28194
2.30639
2.3223
2.3897
2.4062
2.48141
2.49288
2.69411
2.5546
2.49691
2.79296
2.60709
2.56333
3.85419
3.73327
3.67694
3.70542
3.6436
3.56655
3.43951
3.37175
3.26605
3.14801
3.06846
2.93965
2.88299
2.38781
2.41205
2.42494
2.5147
2.52836
2.58684
2.61337
2.75808
2.6981
2.95047
2.88485
2.73808
2.68962
3.37082
3.50415
3.51394
3.55105
3.48029
3.37987
3.30833
3.23673
3.04301
3.17313
3.0635
2.49658
2.70482
2.54102
2.5487
2.60197
2.61107
2.67328
2.99414
2.83342
2.88445
3.01534
2.74702
2.85207
2.8221
3.01563
3.30886
3.33879
3.11314
3.08505
3.1779
3.14199
3.35981
3.41664
3.37773
3.13258
3.11713
3.33763
3.19342
3.1926
2.59259
2.7695
2.69552
2.74557
2.64034
2.64175
2.67602
2.88756
2.95018
2.99312
3.03774
2.82131
2.8908
2.84748
3.03894
3.08899
3.13765
3.12688
3.17883
3.22014
3.20419
3.17072
3.17404
3.2459
3.252
3.26052
3.3068
3.17213
3.1845
3.16325
3.24989
3.2116
3.2591
3.22367
3.22803
3.23665
2.71397
2.63771
2.68841
2.78706
2.81101
2.70174
2.71088
2.77963
3.04733
2.927
2.96512
2.83076
2.924
3.07443
3.0681
3.1235
3.14914
3.17453
3.20645
3.21526
3.26115
3.27865
3.27632
3.25684
3.2318
3.25569
3.22479
3.26857
3.25511
3.26263
3.22946
3.21347
3.21165
3.17941
3.24846
3.25796
3.27163
3.21403
3.22453
3.20615
3.21653
3.21721
3.21817
3.2384
3.28919
2.6581
2.57753
2.63588
2.74481
2.76483
2.82553
2.95492
2.9533
2.98492
3.17173
3.07974
3.09531
3.29531
3.21977
3.19329
3.32637
3.30089
3.36891
3.24821
3.22791
3.25507
3.24727
3.25206
3.21883
3.22111
3.23094
3.21637
3.22521
3.21262
3.21404
3.22877
3.22568
3.2248
3.22839
3.23416
3.37945
3.21591
3.13228
3.08074
3.08866
3.0651
2.90893
3.08086
3.30785
3.22141
3.22071
3.24486
3.23559
3.246
3.23852
3.24543
3.22397
3.22558
3.23736
3.23007
3.22518
3.22456
3.23146
3.21849
3.46399
3.22609
3.22494
3.2246
3.22605
3.22578
3.22582
3.23979
3.23157
3.24257
3.23951
3.24171
3.22575
3.23154
3.22561
3.23242
3.23547
3.22744
3.22888
3.22642
3.22803
3.22697
3.22767
3.23716
3.23468
3.23734
3.23753
3.23609
3.22786
3.23061
3.233
3.23106
3.23556
3.23524
3.22772
3.22853
3.22777
3.22867
3.23437
3.23458
3.23316
3.22986
3.23182
3.23087
3.23406
3.23323
3.22936
3.23002
3.23078
3.23274
3.23135
)
;

boundaryField
{
    movingWall
    {
        type            zeroGradient;
    }
    fixedWalls
    {
        type            zeroGradient;
    }
    frontAndBack
    {
        type            empty;
    }
    defaultFaces
    {
        type            empty;
    }
}


// ************************************************************************* //
