/*--------------------------------*- C++ -*----------------------------------*\
  =========                 |
  \\      /  F ield         | OpenFOAM: The Open Source CFD Toolbox
   \\    /   O peration     | Website:  https://openfoam.org
    \\  /    A nd           | Version:  8
     \\/     M anipulation  |
\*---------------------------------------------------------------------------*/
FoamFile
{
    version     2.0;
    format      ascii;
    class       volVectorField;
    location    "0.008";
    object      U;
}
// * * * * * * * * * * * * * * * * * * * * * * * * * * * * * * * * * * * * * //

dimensions      [0 1 -1 0 0 0 0];

internalField   nonuniform List<vector> 
656
(
(0.742987 0.0565099 -9.67567e-25)
(0.927843 0.014111 1.86493e-24)
(0.953553 -0.00128088 0)
(-0.0911981 0.118143 2.29709e-23)
(0.555699 0.0973899 1.1184e-23)
(0.836649 0.000743768 0)
(-0.0571614 0.0669461 -5.01446e-23)
(-0.014557 0.0188217 9.55591e-24)
(0.965495 -0.000200878 0)
(-0.000735423 0.134079 -2.45132e-24)
(-0.00359757 0.185931 -8.07326e-23)
(-0.118138 0.170167 0)
(0.37388 0.138818 1.00679e-23)
(0.706366 0.00847524 0)
(0.88159 0.000989375 -1.70227e-22)
(0.892084 0.000294443 4.87169e-23)
(0.000968627 0.0799599 1.16836e-23)
(0.00136886 0.0260423 0)
(0.967449 -0.000145042 -3.49475e-23)
(0.895276 7.81947e-05 -1.47583e-22)
(-0.0123111 0.0840101 7.94565e-23)
(-0.00520882 0.0571633 0)
(-0.0237323 0.112451 1.37186e-24)
(-0.00902308 0.232029 1.63129e-22)
(-0.136934 0.219867 -1.75446e-22)
(0.206605 0.178082 -2.26436e-23)
(0.564211 0.0224833 0)
(0.783525 0.00541653 2.66538e-22)
(0.803409 0.00216137 -8.96853e-23)
(-0.00143773 0.0325643 0)
(-0.000151572 0.010492 0)
(0.896008 3.13503e-05 5.36189e-23)
(0.967648 -0.000104538 -3.80162e-23)
(0.810017 0.000978546 2.01512e-22)
(0.811887 0.000429826 -5.41015e-23)
(0.815008 3.27643e-05 -1.15407e-22)
(-0.00616949 0.0544344 -1.08271e-22)
(-0.0025601 0.0368348 1.74895e-23)
(-0.0125393 0.0731146 -1.93693e-22)
(-0.0404428 0.141368 -1.6239e-22)
(-0.0187822 0.268276 1.71454e-22)
(-0.145379 0.263481 -7.23496e-24)
(0.0627227 0.213089 4.57874e-22)
(0.414254 0.0430791 0)
(0.67056 0.0139389 0)
(0.700362 0.00600907 -3.75953e-22)
(-0.000754325 0.0208399 -5.53244e-24)
(-0.000121267 0.00666136 0)
(0.817882 -0.00051768 1.29053e-22)
(0.89765 2.50569e-05 -2.96409e-23)
(0.967388 -5.15787e-05 5.18369e-24)
(0.710624 0.00288788 0)
(0.713722 0.00129471 0)
(0.718509 5.48342e-05 -1.13087e-22)
(0.722784 -0.00157225 4.91761e-22)
(0.71549 -0.0042757 0)
(-0.00920218 0.0328789 2.06884e-22)
(-0.00448026 0.023473 3.03796e-22)
(-0.00182905 0.0152544 -2.96536e-22)
(-0.0226706 0.0917858 -1.90774e-22)
(-0.0169899 0.0431438 6.02023e-22)
(0.26208 0.0714039 -1.33156e-22)
(0.542907 0.0273792 1.77277e-22)
(0.582479 0.0125472 -5.31157e-22)
(-0.000515247 0.00826103 4.7116e-23)
(-7.32434e-05 0.0024196 6.28296e-23)
(0.812954 -0.00147148 -2.73834e-22)
(0.899379 -1.36295e-05 9.14215e-23)
(0.967791 1.4993e-05 5.91176e-24)
(0.691334 -0.0127231 -1.04977e-23)
(0.596461 0.00617264 0)
(0.600799 0.00285822 2.02554e-22)
(0.607502 0.000150628 2.16384e-22)
(0.613466 -0.00328513 -9.43485e-22)
(0.604001 -0.00907635 2.44043e-22)
(-0.00748818 0.013184 9.20615e-22)
(-0.00366648 0.00904236 -4.04304e-24)
(-0.00166652 0.00571599 0)
(-0.000598452 0.00324079 1.09364e-22)
(0.402681 0.0474834 0)
(0.451048 0.0231437 6.79487e-22)
(-9.19628e-05 0.00149687 -1.0353e-22)
(4.4444e-05 0.000320133 -3.19072e-23)
(0.583328 -0.0214731 5.02985e-22)
(0.797107 -0.00490868 1.59266e-22)
(0.896868 -0.000123108 0)
(0.968575 7.74688e-05 -5.65727e-23)
(0.570964 -0.0252097 -3.09084e-22)
(0.438151 -0.0418772 7.6484e-22)
(0.241817 -0.187394 -9.25244e-22)
(0.468295 0.0116586 0)
(0.473605 0.0054161 4.94052e-23)
(0.482426 0.000491948 -1.54114e-22)
(0.490466 -0.00603053 5.4672e-22)
(0.479399 -0.016995 -9.33812e-22)
(-0.013982 0.00560823 3.90829e-22)
(-0.00920038 0.00283638 -4.15197e-22)
(-0.0056597 0.00132116 -2.05488e-22)
(-0.0031504 0.000471318 4.08797e-22)
(-0.00142952 5.9943e-05 4.91816e-23)
(-0.0002909 -4.65887e-05 -2.97381e-23)
(-0.139192 -0.241042 6.07874e-23)
(0.405756 -0.146441 -6.40497e-23)
(0.718994 -0.00800177 -8.42741e-22)
(0.888635 -0.000840856 0)
(0.968361 0.000164068 0)
(0.436893 -0.0448235 5.88182e-22)
(0.286708 -0.0706927 -2.97522e-22)
(0.09253 -0.223225 1.07455e-22)
(-0.146147 -0.284585 1.44085e-21)
(-0.0409261 0.00925875 0)
(-0.0306118 0.00495136 1.97136e-22)
(-0.0216743 0.00247795 -6.96391e-22)
(-0.0140207 0.0010296 1.94133e-22)
(-0.00753405 0.000289399 -4.62565e-23)
(-0.00205739 4.33512e-05 -2.87174e-23)
(-0.00979921 -0.263345 0)
(-0.121901 -0.189133 0)
(0.5794 -0.102895 5.12441e-22)
(0.843098 -0.000658091 -4.24477e-23)
(0.966954 0.000237987 -1.1033e-22)
(-0.0197448 -0.299249 -1.71719e-21)
(-0.0627976 0.00739637 0)
(-0.0478055 0.00419067 2.05854e-22)
(-0.03445 0.0021431 -2.47524e-24)
(-0.0227013 0.000942265 1.02168e-22)
(-0.0124695 0.000313669 -4.80392e-23)
(-0.00363807 7.88095e-05 0)
(-0.0272442 -0.133443 -5.81107e-22)
(-0.00402775 -0.214837 0)
(-0.0954524 -0.132925 5.24564e-22)
(0.756289 -0.059742 0)
(0.95459 0.00134854 8.2015e-23)
(-0.0458312 -0.164559 0)
(-0.0776706 0.00555609 0)
(-0.0595934 0.00316344 1.28612e-22)
(-0.0432638 0.00164623 -3.7333e-22)
(-0.0287317 0.000745672 1.21038e-22)
(-0.0159652 0.000275409 5.39004e-23)
(-0.00484492 8.85968e-05 -1.81432e-23)
(-0.0130895 -0.0924665 2.96701e-22)
(-0.01444 -0.101256 0)
(-0.000728383 -0.157254 -4.60046e-22)
(-0.0605709 -0.0760901 4.44182e-22)
(0.931072 -0.014788 0)
(-0.0235157 -0.113498 0)
(-0.0821814 0.00453056 1.63917e-22)
(-0.0629956 0.00264009 -1.58371e-22)
(-0.0457282 0.00137827 1.53433e-22)
(-0.0303843 0.00062552 -2.94318e-22)
(-0.0169226 0.000230783 4.0487e-22)
(-0.00524589 7.20236e-05 -5.40105e-23)
(-0.00991848 -0.0514904 2.58261e-22)
(-0.00651403 -0.0701327 -5.53622e-22)
(-0.00596539 -0.0696109 1.59792e-22)
(0.00161178 -0.0943334 -4.76287e-22)
(-0.0141374 -0.0210819 1.33936e-23)
(-0.0176826 -0.0646767 0)
(-0.0103779 -0.0371777 -5.81602e-23)
(-0.08096 0.00478469 -2.01837e-22)
(-0.0618597 0.00315238 8.14373e-22)
(-0.0448596 0.00174433 -7.77553e-22)
(-0.0298501 0.000774753 0)
(-0.0166673 0.000253085 0)
(-0.00523481 6.06255e-05 -5.94337e-24)
(-0.00575742 -0.0296282 1.2411e-22)
(-0.00499134 -0.0383554 3.23403e-24)
(-0.0025624 -0.0481515 4.22144e-22)
(-0.00128097 -0.0396874 -1.57133e-22)
(0.00229948 -0.0292599 0)
(-0.00605442 -0.0201574 9.38241e-22)
(-0.0471658 0.00251939 8.86096e-22)
(-0.0311797 0.00168695 -9.17039e-22)
(-0.0172742 0.000623707 0)
(-0.00536649 0.000117825 -8.34142e-24)
(-0.00337803 -0.0157511 -2.48663e-22)
(-0.00285107 -0.0220122 -9.70351e-23)
(-0.00204517 -0.0259558 2.00871e-22)
(-0.000534416 -0.0274677 -1.37441e-22)
(0.000164241 -0.0120754 5.22009e-23)
(-0.00351171 -0.00994831 0)
(-0.00209235 0.0072582 -1.04841e-21)
(-0.0366768 0.00066998 0)
(-0.0129154 0.000259307 -2.89956e-23)
(-0.00176231 -0.00446274 0)
(-0.0019187 -0.00770584 -2.51744e-22)
(-0.00166612 -0.0115012 -4.84056e-22)
(-0.00117072 -0.0148427 -6.63624e-23)
(-0.000531565 -0.014664 1.35134e-22)
(7.82974e-05 -0.0086112 -5.24019e-23)
(-0.00113016 0.00435012 2.15179e-21)
(-0.0010825 0.00506438 2.23035e-21)
(-0.0021544 0.00554998 7.16303e-23)
(-0.000854287 -0.00186194 -5.01561e-22)
(-0.00094141 -0.00333594 -1.49382e-25)
(-0.000925804 -0.0055594 1.30391e-22)
(-0.000687549 -0.00763737 3.92319e-22)
(-0.000323858 -0.00836536 8.09686e-24)
(-3.80374e-05 -0.00463944 -2.4251e-23)
(-0.000623463 0.00257275 -6.31805e-25)
(-0.000549558 0.00293655 -1.79913e-21)
(-0.000490746 0.00343242 -5.39144e-22)
(-0.000982095 0.00316724 0)
(-0.00211336 0.00833034 1.51941e-21)
(-0.000362044 -0.000632013 -2.69364e-22)
(-0.00043128 -0.00134026 2.6752e-22)
(-0.000438854 -0.00231995 1.33445e-22)
(-0.000376594 -0.00364229 0)
(-0.000197758 -0.0042465 -1.28627e-22)
(-3.84346e-05 -0.00266769 1.82337e-23)
(-0.000405967 0.00118346 8.58954e-22)
(-0.000289105 0.00172858 3.45874e-22)
(-0.000239649 0.00187607 2.0307e-22)
(-0.000175996 0.00213881 5.49734e-23)
(-0.000256915 0.00156616 -6.23461e-23)
(-0.000315376 0.00221777 1.09416e-21)
(-0.00012118 -0.000116802 1.1257e-21)
(-0.00016385 -0.000406459 -4.21145e-22)
(-0.000189609 -0.000892876 -2.75266e-22)
(-0.000170993 -0.00146348 -1.33959e-22)
(-0.000106906 -0.00199578 0)
(-2.9691e-05 -0.00133804 -1.18657e-23)
(-0.000188531 0.000318258 0)
(-0.000185768 0.000758047 -2.96703e-22)
(-0.000119771 0.00110084 -1.02113e-21)
(-8.42918e-05 0.00109824 3.31543e-22)
(-3.63788e-05 0.00111406 -3.66508e-22)
(-1.69309e-05 0.000391768 9.83593e-24)
(-0.000113336 -4.33183e-05 -4.88856e-22)
(-4.34103e-05 -4.66213e-05 7.45191e-22)
(-6.63524e-05 -0.000234922 -7.21015e-22)
(-6.88364e-05 -0.000537146 1.37983e-22)
(-4.36436e-05 -0.000769738 0)
(-1.51235e-05 -0.000614674 1.17323e-23)
(-3.96005e-05 7.9516e-07 0)
(-7.43985e-05 0.000145384 5.72013e-22)
(-7.69058e-05 0.000453454 7.43705e-22)
(-3.93059e-05 0.000643697 9.73039e-22)
(-1.50652e-05 0.000539294 -3.44024e-22)
(7.08152e-07 0.000320849 -2.25724e-23)
(-0.000377525 -7.86168e-05 -5.83968e-22)
(-4.11735e-05 -2.06633e-05 0)
(-1.43998e-05 -5.85008e-06 5.35118e-22)
(-2.05911e-05 -0.000117623 0)
(-1.39536e-05 -0.000267386 0)
(-3.31819e-06 -0.000222195 0)
(-2.86399e-06 3.01574e-05 6.51523e-22)
(-6.71693e-06 -4.38575e-05 -5.91506e-22)
(-2.59592e-05 4.20043e-05 -5.82055e-22)
(-2.47138e-05 0.000245136 -4.34051e-22)
(-5.18525e-06 0.000315539 -4.50318e-22)
(3.2643e-06 0.000143209 1.3469e-23)
(-0.000554573 -2.02962e-05 0)
(-0.00023539 -3.73632e-05 1.46322e-22)
(-3.5069e-06 -8.87756e-06 0)
(-3.27562e-06 1.18939e-05 2.09384e-27)
(-1.55189e-06 -4.5239e-05 0)
(1.59141e-06 -6.98018e-05 -9.34372e-23)
(-0.000503848 6.40488e-05 0)
(-0.000228801 9.17867e-05 -5.88023e-22)
(3.82135e-05 1.09731e-05 -1.63833e-22)
(7.2932e-07 -5.71227e-05 3.03491e-22)
(-5.50547e-06 -8.49456e-06 -4.31364e-22)
(-2.11283e-06 0.000108549 -1.36574e-22)
(2.93098e-06 8.24605e-05 9.48613e-23)
(-0.00036737 -9.77273e-06 -1.96427e-23)
(-0.000138471 -1.71996e-05 -2.18825e-22)
(1.13731e-05 -2.36456e-06 0)
(1.03418e-06 1.37772e-05 -1.12566e-22)
(2.61832e-06 -6.67016e-06 9.42583e-23)
(-0.00032522 3.38112e-05 2.18312e-24)
(-0.000112707 4.09563e-05 6.60335e-22)
(5.04137e-05 3.39316e-06 -6.64142e-27)
(2.59374e-06 -5.07844e-05 1.00571e-25)
(2.47884e-06 -2.20089e-05 -2.75844e-22)
(3.02163e-06 2.35003e-05 8.6885e-23)
(-0.000232247 -4.44769e-06 1.54647e-22)
(-7.39351e-05 -5.85901e-06 1.06771e-22)
(1.22711e-05 5.8315e-07 -1.31367e-22)
(1.54994e-06 5.67686e-06 2.39315e-23)
(-0.000199351 1.66048e-05 2.17843e-24)
(-4.36654e-05 1.81735e-05 -1.46086e-22)
(4.51682e-05 -2.35339e-07 4.71681e-22)
(2.47256e-06 -3.32468e-05 -2.21054e-22)
(3.28235e-06 -1.13334e-05 3.02912e-26)
(-0.000135293 -1.48415e-06 0)
(-3.24399e-05 -6.06146e-07 1.18526e-22)
(4.99149e-06 1.0971e-06 8.29687e-23)
(-0.000111986 6.47535e-06 0)
(-7.47591e-06 5.80219e-06 -2.13629e-22)
(2.99669e-05 -1.38977e-06 4.11356e-22)
(1.43501e-06 -1.02012e-05 4.5779e-23)
(-6.64188e-05 -1.1621e-07 -1.00995e-24)
(-7.11051e-06 6.82945e-07 -1.48921e-22)
(-5.26392e-05 1.38979e-06 1.00863e-24)
(6.2571e-06 1.03928e-07 -1.18433e-22)
(9.59881e-06 -1.08184e-06 1.17339e-22)
(-1.80535e-05 2.32196e-07 4.51623e-23)
(-1.34347e-05 -1.57538e-07 0)
(5.18101e-06 -1.15493e-06 -1.1423e-23)
(-0.146767 0.29497 2.30082e-21)
(-0.03499 0.251041 4.90694e-22)
(-0.0375184 0.110364 0)
(-0.0700858 0.161272 2.86564e-21)
(-0.062244 0.171201 -3.02833e-21)
(-0.0772961 0.239062 0)
(-0.0417314 0.2912 0)
(-0.106472 0.334749 -1.0679e-21)
(-0.101793 0.290866 0)
(-0.0570112 0.250219 -1.90118e-21)
(0.122304 0.112924 4.27889e-21)
(-0.100553 0.243444 0)
(-0.0290016 0.0547238 -3.77673e-22)
(-0.047985 0.0875208 0)
(-0.0140646 0.0174588 -3.95869e-21)
(-0.0326714 0.0403369 4.0507e-21)
(-0.0701063 0.0982348 -2.35501e-21)
(-0.0987537 0.12685 0)
(-0.0879368 0.169082 0)
(-0.114582 0.199084 6.35245e-22)
(-0.123748 0.259507 0)
(-0.120294 0.258274 1.9945e-21)
(-0.0555324 0.165776 2.42946e-21)
(0.0538369 0.135028 -5.77496e-21)
(0.249268 0.0777785 1.13595e-21)
(-0.145424 0.189282 -6.06061e-22)
(-0.153564 0.207906 0)
(-0.0195054 0.010392 -3.30573e-21)
(-0.0424492 0.0239166 9.03492e-22)
(-0.0506402 0.0431762 7.52376e-22)
(-0.0748713 0.0653616 2.39454e-21)
(-0.0978528 0.0622701 -4.65742e-21)
(-0.134525 0.0858438 -4.10256e-21)
(-0.134677 0.118715 -3.1197e-21)
(-0.164597 0.13999 5.85819e-21)
(-0.154246 0.164626 -1.68382e-21)
(-0.102312 0.146871 -1.74565e-21)
(-0.0210143 0.101115 0)
(0.311419 0.0394692 -5.90071e-21)
(0.124235 0.0877438 0)
(0.328938 0.0210203 0)
(0.15445 0.0443434 4.9604e-21)
(-0.186157 0.123865 0)
(-0.18443 0.131556 0)
(-0.0278826 -0.264828 6.33326e-21)
(-0.155145 -0.312264 0)
(0.313357 -0.0697319 0)
(0.326368 0.00919573 -2.0668e-22)
(0.162684 0.0225363 0)
(0.177697 -0.0767616 0)
(0.360465 -0.0283533 1.26937e-21)
(0.343537 0.000848178 3.93268e-21)
(0.173603 0.00443737 0)
(0.206041 -0.0328467 0)
(0.363565 -0.0111315 0)
(0.200166 -0.0116598 -3.99333e-21)
(-0.0545568 0.0177686 1.20581e-21)
(-0.0796143 0.0275895 -1.53276e-21)
(-0.0966914 0.0366566 4.98197e-21)
(-0.134815 0.0382441 0)
(-0.15772 0.058488 0)
(-0.178862 0.0635406 -3.26734e-21)
(-0.201345 0.0799972 -2.47932e-21)
(-0.174821 0.0957495 0)
(-0.0166805 0.0573892 3.48222e-21)
(-0.0962606 0.0832203 0)
(0.0443596 0.0288611 0)
(-0.0759764 0.0466155 -3.76826e-21)
(-0.218303 0.0661881 8.25003e-21)
(-0.215114 0.0722601 -2.44032e-21)
(-0.0467299 -0.238338 -3.56382e-21)
(0.125797 -0.117501 8.14983e-21)
(0.0849494 -0.12977 -6.34635e-21)
(-0.131243 -0.353255 1.78918e-21)
(-0.109304 -0.291817 -3.90178e-21)
(-0.0451173 -0.318405 2.57256e-22)
(-0.0197108 -0.148266 -6.7857e-21)
(-0.0302441 -0.1173 2.21754e-21)
(0.0549476 -0.0861719 3.44748e-21)
(0.0146858 0.0028172 0)
(-0.0707074 0.0202696 0)
(-0.0154166 -0.0684155 -3.79931e-21)
(0.0725239 -0.04259 0)
(-0.0125774 -0.0346547 -3.54146e-21)
(0.0745975 -0.017742 3.22909e-21)
(-0.0495443 -0.0103496 4.90618e-21)
(-0.0788593 0.0114776 1.75294e-21)
(-0.110408 0.0171061 0)
(-0.129755 0.0233847 0)
(-0.160073 0.0255248 3.49337e-21)
(-0.182897 0.0368512 0)
(-0.202164 0.0357457 8.73602e-21)
(-0.222106 0.0447025 -7.44523e-21)
(-0.161785 0.0301466 0)
(-0.170932 0.0414939 -5.9961e-21)
(-0.215501 0.0497466 1.21863e-20)
(-0.206712 0.0207616 0)
(-0.23766 0.0413849 -7.87081e-21)
(-0.230496 0.0381633 -4.21329e-21)
(-0.123023 -0.264563 0)
(-0.120085 -0.199055 8.16502e-21)
(-0.0714513 -0.192736 0)
(-0.0753982 -0.268238 -5.55624e-22)
(-0.107653 -0.262919 4.36401e-22)
(-0.145639 -0.182259 -8.38621e-21)
(-0.122543 -0.137591 -7.75777e-21)
(-0.145806 -0.113535 1.03238e-20)
(-0.114814 -0.0802926 3.19709e-21)
(-0.16119 -0.051466 -4.18289e-21)
(-0.130838 -0.0352854 0)
(-0.147713 -0.0168043 -3.39159e-21)
(-0.194874 -0.00260367 0)
(-0.0962263 0.00852296 0)
(-0.126813 0.0125177 -1.37023e-21)
(-0.147935 0.0160321 -5.34081e-21)
(-0.169578 0.0190016 4.58205e-21)
(-0.189157 0.024973 -1.62066e-21)
(-0.200376 0.0253001 -2.08695e-21)
(-0.221839 0.0311992 6.58258e-21)
(-0.233408 0.022152 -7.39268e-21)
(-0.239963 0.0304333 9.00072e-21)
(-0.222784 0.00444551 0)
(-0.230468 0.0188163 -1.25586e-21)
(-0.232163 0.0323649 0)
(-0.224119 0.0302415 0)
(-0.0389936 -0.13011 -1.30905e-20)
(-0.0848923 -0.188143 4.51099e-21)
(-0.104199 -0.188765 5.43888e-21)
(-0.131076 -0.216243 -7.5241e-22)
(-0.154297 -0.188137 6.94223e-22)
(-0.167748 -0.141056 -7.85382e-21)
(-0.178976 -0.111001 0)
(-0.189163 -0.0691523 -9.95486e-21)
(-0.196252 0.00914334 -4.62038e-21)
(-0.196771 -0.0548719 7.24126e-21)
(-0.217771 -0.0142743 2.94703e-21)
(-0.10261 0.00698036 4.82871e-21)
(-0.206805 0.0299941 2.86313e-21)
(-0.128113 0.0106691 -3.4486e-21)
(-0.145518 0.0139363 -2.97563e-21)
(-0.162536 0.0184534 -6.45271e-21)
(-0.186221 0.0229511 1.44392e-21)
(-0.191141 0.0252623 -3.64201e-21)
(-0.202545 0.0266415 -2.82658e-21)
(-0.223553 0.0334144 7.08875e-22)
(-0.223466 0.0273057 1.30061e-21)
(-0.185106 0.0360359 5.04428e-21)
(-0.202875 0.0332075 2.10806e-21)
(-0.208284 0.0374049 -1.34803e-21)
(-0.203564 0.0356597 -2.02469e-21)
(-0.160176 0.0422905 -6.96733e-21)
(-0.0282603 -0.0764703 0)
(-0.0486345 -0.117268 8.76456e-21)
(-0.118775 0.0470867 0)
(-0.144083 0.0379781 4.56723e-21)
(-0.0780893 0.0466219 8.75023e-21)
(-0.0940556 0.0432281 -5.77781e-21)
(-0.0659511 -0.12406 0)
(-0.105828 -0.15163 -5.16986e-21)
(-0.134899 -0.128987 1.57712e-20)
(-0.141182 0.019809 -6.07579e-21)
(-0.16188 0.00564377 4.83467e-21)
(-0.133167 -0.100428 -1.12429e-20)
(-0.166441 -0.0494606 1.19804e-22)
(-0.148125 -0.0298586 -9.88015e-21)
(-0.100567 0.00699633 0)
(-0.185495 0.0319316 0)
(-0.172791 0.0235471 2.75339e-22)
(-0.175642 0.0281439 -3.75805e-22)
(-0.122712 0.0121583 -5.35499e-21)
(-0.141798 0.0158952 5.69621e-21)
(-0.153252 0.0188737 4.93873e-21)
(-0.194337 0.0432041 1.92335e-21)
(-0.187686 0.0435227 -4.35549e-22)
(-0.166631 0.0507152 3.79403e-21)
(-0.151886 0.0512471 1.37942e-21)
(-0.179505 0.0355613 -5.76203e-21)
(-0.181273 0.0456492 1.55372e-23)
(-0.187146 0.0394418 4.92033e-21)
(-0.134163 0.0565881 2.39003e-21)
(-0.116457 0.0568406 -7.77406e-21)
(-0.0789535 0.0544184 2.97583e-21)
(-0.0963101 0.0581595 2.46361e-21)
(-0.0634141 0.0537046 -3.45518e-21)
(-0.0381038 0.0427106 0)
(-0.0498472 0.0465888 2.87058e-21)
(-0.0594515 0.0432243 -2.476e-22)
(-0.0536781 0.0382546 0)
(-0.0164864 -0.0435953 -4.4459e-21)
(-0.0331029 -0.0685481 4.3502e-21)
(-0.0394541 -0.072032 3.04414e-21)
(-0.0651725 -0.0923684 0)
(-0.0678448 0.0262593 1.0609e-20)
(-0.0888111 0.0268236 0)
(-0.105838 0.0153312 5.89345e-21)
(-0.0805258 -0.0748818 1.37388e-22)
(-0.0936751 -0.0157036 1.6047e-21)
(-0.101645 -0.0789621 -4.43901e-21)
(-0.114192 -0.0344546 8.89623e-21)
(-0.00947974 -0.024475 -5.22323e-22)
(-0.0167762 -0.0359301 0)
(-0.0916777 0.00643154 0)
(-0.0628292 0.00206691 -5.50795e-22)
(-0.0754861 0.0026888 5.55234e-22)
(-0.156815 0.027746 -3.17796e-21)
(-0.163025 0.0346255 2.79743e-21)
(-0.107687 0.0101398 0)
(-0.131487 0.0157936 -2.61756e-21)
(-0.141794 0.0221403 3.12626e-21)
(-0.134485 0.0593904 1.28813e-21)
(-0.163469 0.0504344 -2.11489e-21)
(-0.157897 0.0544604 -2.67338e-21)
(-0.151827 0.0395999 -3.60087e-21)
(-0.15086 0.047745 7.10619e-22)
(-0.119898 0.0587931 0)
(-0.100598 0.0599942 0)
(-0.0905018 0.059818 0)
(-0.0723681 0.0584697 -3.04796e-21)
(-0.0587028 0.0549614 -1.70929e-21)
(-0.045459 0.0508436 4.07987e-21)
(-0.0339279 0.0434695 0)
(-0.00535939 0.0152048 0)
(-0.00335234 0.0110558 -6.78389e-22)
(-0.00968186 0.023489 3.65722e-21)
(-0.0154662 0.0304493 -3.20592e-21)
(-0.0245412 0.0385556 0)
(-0.0174503 0.029869 -5.99011e-21)
(-0.0262109 0.035102 2.26843e-23)
(-0.00758373 0.0174379 0)
(-0.0102664 0.021277 -4.71243e-21)
(-0.00363527 0.0100623 0)
(-0.0275951 0.0320185 5.80903e-24)
(-0.038774 0.0343802 1.00191e-23)
(-0.0382086 0.0273286 3.66934e-21)
(-0.0583207 0.0222958 -4.49832e-21)
(-0.0231619 -0.0382961 9.25154e-21)
(-0.0378604 -0.0483797 -1.94813e-20)
(-0.0551815 -0.0456395 4.14494e-21)
(-0.055157 0.00936447 -2.36941e-21)
(-0.0594596 -0.0255693 8.78016e-21)
(-0.0712721 -0.0131573 -6.17177e-21)
(-0.00531653 -0.0119496 0)
(-0.00946528 -0.0183534 0)
(-0.0115368 -0.0190323 -3.81716e-21)
(-0.0212988 -0.0256281 -5.59022e-21)
(-0.00282957 0.00852104 5.73853e-22)
(-0.084404 0.00651864 1.36476e-21)
(-0.050524 0.000214848 0)
(-0.0631201 0.00146417 -1.19439e-21)
(-0.103995 0.019506 1.63234e-21)
(-0.122286 0.0247866 -4.75389e-21)
(-0.132387 0.0368605 -6.22241e-23)
(-0.113254 0.0466615 4.23102e-21)
(-0.125484 0.0522856 -4.95301e-21)
(-0.116406 0.0567032 3.37038e-21)
(-0.0678809 0.0578915 -4.00376e-21)
(-0.0889422 0.0554241 6.27435e-23)
(-0.0864311 0.0593418 1.13869e-21)
(-0.0254379 0.0416476 4.08553e-21)
(-0.0387377 0.0493412 -3.45941e-23)
(-0.0543132 0.0531383 1.99638e-21)
(-0.00751406 0.0231359 1.77179e-21)
(-0.0188727 0.0355674 -2.1562e-21)
(-0.00411907 0.0155787 -1.59253e-21)
(-0.0116963 0.0208616 5.36333e-21)
(-0.017995 0.0247009 0)
(-0.00416316 0.010706 4.23128e-21)
(-0.00585446 0.0130436 -7.48305e-21)
(-0.00210388 0.00627716 0)
(-0.00256188 -0.00550494 0)
(-0.00443722 -0.00837646 -1.20719e-21)
(-0.0187185 0.0213339 5.4154e-21)
(-0.0278175 0.0217202 -6.09227e-24)
(-0.0280714 0.015057 -1.11784e-20)
(-0.0406718 0.00821593 1.13083e-20)
(-0.0258531 -0.0173384 3.99086e-21)
(-0.0346608 -0.0147674 -3.23509e-21)
(-0.031956 -0.00161815 -3.96201e-21)
(-0.00619532 -0.00909302 7.49319e-22)
(-0.0104234 -0.0120084 2.13451e-21)
(-0.0160869 -0.0104957 1.47044e-21)
(-0.0032782 0.0120333 -3.05772e-21)
(-0.0207678 0.0367007 0)
(-0.0432767 0.0467669 0)
(-0.0660029 0.0251351 4.05589e-21)
(-0.0766868 0.0388195 -2.82214e-21)
(-0.0707665 0.0480346 0)
(-0.0158536 0.00182016 3.27138e-23)
(-0.044499 0.0103298 0)
(-0.00718785 0.0231101 -1.03565e-22)
(-0.0021868 -0.00382889 -6.3429e-22)
(-0.00126043 -0.00234133 3.11822e-21)
(-0.00765537 0.0129551 7.74062e-21)
(-0.0114243 0.0153711 0)
(-0.00229394 0.00617957 -3.51396e-21)
(-0.0038514 0.00794566 -1.11584e-20)
(-0.00118647 0.00371643 6.15974e-21)
(-0.00301339 -0.00422268 4.39611e-22)
(-0.00616441 -0.00654691 0)
(-0.013081 0.010425 0)
(-0.0190483 0.010267 0)
(-0.0208509 0.00137006 0)
(-0.00854161 -0.00505644 5.01632e-21)
(-0.0141434 -0.00589786 -4.28634e-21)
(-0.0157454 7.51529e-05 0)
(-0.000971436 0.00750491 0)
(-0.00304004 -0.00304739 2.83494e-21)
(-0.000687421 -0.000914595 -7.10941e-21)
(-0.00117867 -0.0015768 1.23742e-20)
(-0.0017695 -0.00194905 -7.47996e-21)
(-0.000578937 -0.000581453 -2.43402e-21)
(-0.000232974 -0.000198652 0)
(-0.00446256 0.0065998 3.64383e-21)
(-0.00754698 0.00690862 0)
(-0.00132257 0.00305618 0)
(-0.00200921 0.00389584 0)
(-0.000759226 0.00173842 -1.34343e-21)
(-0.0041692 -0.00268648 2.32781e-21)
(-0.00621499 -0.0028733 0)
(-0.00633928 -6.8328e-07 7.0361e-21)
(-0.00708348 0.00426714 1.8589e-21)
(-0.00841703 0.00206009 -7.0161e-21)
(-0.00197763 -0.00144469 0)
(-0.00314897 -0.0014848 5.49367e-21)
(-0.000802409 -0.000639598 8.91196e-21)
(-0.00145388 -0.000965067 -1.01087e-20)
(-0.00021282 -0.000118823 -1.81524e-22)
(-0.000558239 -0.00030864 7.52913e-21)
(-0.00216942 0.00265635 1.50876e-21)
(-0.00334905 0.00274397 -1.13137e-21)
(-0.000391457 0.000565346 -8.69108e-21)
(-0.000714468 0.00109283 1.18758e-20)
(-0.00118208 0.00156126 0)
(-0.00316273 -0.000554528 -5.57626e-21)
(-0.00414642 0.0005184 -8.15907e-21)
(-0.00328909 0.000823232 1.20967e-20)
(-0.00289078 0.00162009 0)
(-0.00029293 0.000325927 0)
(-0.000108597 7.57419e-05 4.63484e-21)
(-0.00161289 -0.000458539 3.49448e-21)
(-0.0022254 -0.000299624 -6.19477e-21)
(-0.000607001 -0.00019435 -1.36245e-22)
(-0.00108911 -0.000240571 1.14981e-24)
(-0.000531967 0.000514491 0)
(-0.00101214 0.000950246 2.02731e-21)
(-0.001504 0.00107021 -1.75139e-21)
(-0.00179005 5.81269e-05 -2.32598e-24)
(-0.00140893 0.000540308 8.3123e-22)
(-0.00215884 0.000336805 6.57489e-21)
(-7.0625e-05 8.9528e-05 -6.14366e-21)
(-0.000333696 0.000279519 0)
(-0.000848492 -5.06243e-05 -9.18909e-21)
(-0.00128275 5.88744e-05 4.38034e-21)
(-0.000788544 0.000132252 4.66065e-21)
(-0.000438582 0.000246452 0)
(-0.000948738 0.000383318 -5.1059e-21)
)
;

boundaryField
{
    movingWall
    {
        type            fixedValue;
        value           uniform (1 0 0);
    }
    fixedWalls
    {
        type            noSlip;
    }
    frontAndBack
    {
        type            empty;
    }
    defaultFaces
    {
        type            empty;
    }
}


// ************************************************************************* //
