/*--------------------------------*- C++ -*----------------------------------*\
  =========                 |
  \\      /  F ield         | OpenFOAM: The Open Source CFD Toolbox
   \\    /   O peration     | Website:  https://openfoam.org
    \\  /    A nd           | Version:  8
     \\/     M anipulation  |
\*---------------------------------------------------------------------------*/
FoamFile
{
    version     2.0;
    format      ascii;
    class       volScalarField;
    location    "12000";
    object      epsilon;
}
// * * * * * * * * * * * * * * * * * * * * * * * * * * * * * * * * * * * * * //

dimensions      [0 2 -3 0 0 0 0];

internalField   nonuniform List<scalar> 
4109
(
0.117448
0.131116
0.120838
0.129916
0.135544
0.131548
0.136733
0.120697
0.145285
0.145066
0.143158
0.147245
0.119921
0.134621
0.139704
0.150934
0.151627
0.150008
0.151989
0.141144
0.121852
0.130567
0.13173
0.158827
0.160151
0.165312
0.120026
0.133843
0.11853
0.160473
0.149187
0.143095
0.133002
0.131282
0.137942
0.163078
0.164096
0.176555
0.137231
0.119629
0.13442
0.137029
0.122402
0.166565
0.154522
0.552356
0.255175
0.14888
0.143821
0.132689
0.138997
0.170776
0.178451
0.192216
0.15049
0.137573
0.117345
0.135044
0.139387
0.147681
0.144053
0.676456
0.177315
0.163067
0.157187
0.221592
0.552441
0.151027
0.143484
0.143882
0.207829
0.184805
0.236317
0.22742
0.224585
0.155877
0.15556
0.144035
0.134746
0.144291
0.140625
0.143545
0.149292
0.152086
0.182433
0.249297
0.590761
0.800654
0.809979
0.188968
0.184678
0.169517
0.163118
0.157877
0.19733
0.421852
0.15129
0.144307
0.237085
0.220717
0.209838
0.242332
0.248356
0.245916
0.251896
0.165708
0.161259
0.155389
0.141219
0.154485
0.207865
0.1472
0.151788
0.154738
0.161324
0.819511
0.30326
0.401448
0.566757
0.895461
0.847242
0.251616
0.206332
0.194386
0.178849
0.172039
0.16567
0.157374
0.429075
0.167515
0.154808
0.241512
0.227104
0.260361
0.251883
0.27434
0.256568
0.172103
0.169842
0.169731
0.155066
0.160978
0.21114
0.152189
0.157548
0.162785
0.166816
0.798475
0.474389
0.916152
0.598815
0.925767
0.284572
0.214462
0.20367
0.186773
0.17915
0.172491
0.166056
0.159942
0.415067
0.15346
0.235695
0.221824
0.269644
0.248224
0.279166
0.283649
0.300085
0.18271
0.178201
0.176977
0.163912
0.169624
0.226587
0.159219
0.165603
0.168918
0.176763
0.556421
0.972862
0.579407
1.00959
0.984639
0.313522
0.197387
0.207055
0.188714
0.172258
0.180784
0.170828
0.473486
0.161007
0.219138
0.230588
0.263616
0.24429
0.278158
0.297222
0.296313
0.338056
0.190366
0.188168
0.189449
0.177786
0.171339
0.228551
0.16579
0.171663
0.177975
0.183813
0.602688
1.0539
1.07877
0.665629
1.09677
0.310509
0.198463
0.210152
0.184846
0.178405
0.496824
0.171574
0.221467
0.234392
0.257909
0.247681
0.273649
0.29623
0.311801
0.335234
0.375038
0.202439
0.19697
0.196636
0.189078
0.178954
0.241249
0.179824
0.172461
0.211963
0.185977
0.194914
0.591078
1.15096
0.698646
1.19338
1.19332
0.32875
0.200874
0.208845
0.190318
0.547311
0.171193
0.224061
0.234164
0.26209
0.25034
0.277485
0.289834
0.315064
0.338442
0.362229
0.422392
0.213117
0.205298
0.202639
0.222027
0.181141
0.24542
0.184168
0.225183
0.203814
0.196864
1.24214
0.61557
1.29073
0.766186
1.32884
0.338867
3.64985
0.202938
0.215065
0.577098
0.178517
0.22362
0.237584
0.263058
0.249451
0.279758
0.293522
0.308307
0.33749
0.364643
0.402126
0.412959
0.47906
0.21009
0.219835
0.203512
0.234338
0.236736
0.186846
0.25519
0.199698
0.216297
0.207085
0.639659
1.36581
1.41531
0.770729
1.44495
0.353618
4.40738
3.87582
4.60697
3.18424
3.9592
2.78974
0.751751
0.187304
0.231468
0.238885
0.253836
0.25252
0.26754
0.280595
0.29401
0.311392
0.42399
0.327688
0.361238
0.397176
0.478459
0.541667
0.510046
0.617859
0.231728
0.225024
0.247545
0.251647
0.227121
0.19941
0.27178
0.207346
0.219421
0.698616
1.52077
1.50321
0.357028
9.80429
7.17486
4.72242
3.39321
4.36372
5.47821
0.724371
0.718617
0.810411
3.02079
2.61985
2.79068
2.54537
2.91515
1.38701
0.219007
0.305735
0.287315
0.274071
0.464694
0.28491
0.295614
0.311872
0.330418
0.42252
0.349641
0.387942
0.533201
0.479672
0.589861
0.576224
0.721148
0.806613
0.248663
0.251309
0.265023
0.264859
0.241316
0.231316
0.209936
0.269348
0.223009
0.789565
1.81152
10.1273
7.33936
3.60962
4.35717
5.52844
0.787731
0.840137
0.920337
0.843768
0.898342
2.13266
2.32175
2.24651
2.52334
2.99091
2.06879
1.18219
0.318531
0.328554
0.292159
0.454859
0.47188
0.310679
0.308337
0.329142
0.351503
0.414618
0.373177
0.542322
0.509188
0.595643
0.647278
0.729696
0.766512
0.276542
0.265319
0.232793
0.293498
0.281783
0.254491
0.245423
0.319437
0.236784
0.224545
0.330619
0.867946
9.84249
11.2001
7.49129
3.58597
4.45296
5.70717
0.830642
1.00247
1.18956
0.939052
1.02763
1.82949
1.47208
0.933203
1.00112
1.9927
2.18588
2.5446
2.95255
2.48311
2.1311
0.605343
0.345418
0.325259
0.44396
0.473825
0.325191
0.32834
0.349738
0.374208
0.400022
0.553597
0.513289
0.605108
0.660802
0.698565
0.758244
0.302253
0.319377
0.295074
0.248682
0.249057
0.270971
0.286962
0.259836
0.334764
0.307204
1.72591
2.49478
0.241298
0.235142
10.2517
7.29755
7.04484
11.4057
7.76151
3.63366
4.54875
5.91913
0.912761
0.805852
1.07055
1.20277
1.13502
1.4044
1.66362
1.0369
1.12286
1.908
2.14635
2.52699
3.06518
3.27083
3.0873
3.87743
0.641801
0.40981
0.348308
0.429296
0.462463
0.350668
0.346666
0.370389
0.400717
0.498965
0.540404
0.586574
0.639251
0.693383
0.739234
0.773232
0.33738
0.335561
0.262453
0.261986
0.276741
0.293221
0.31276
0.358075
0.32708
0.264366
0.361
0.45843
10.664
7.53975
6.47381
4.31498
4.3917
11.5843
7.60072
3.71551
4.14697
4.95762
1.00671
0.876719
0.838714
1.61549
1.25986
1.35025
1.15896
1.24828
1.86929
2.11717
2.63669
3.13222
0.944646
3.8777
3.92191
4.4771
0.854599
0.455531
0.386807
0.429776
0.462374
0.371135
0.37331
0.398424
0.498412
0.539005
0.584337
0.635693
0.680297
0.713925
0.770654
0.78289
0.376176
0.37787
0.283053
0.282784
0.298944
0.315768
0.331774
0.385257
0.349434
0.332948
0.283577
0.302658
10.4477
3.29171
6.16611
5.39711
4.35535
11.7404
7.70914
3.51002
4.33029
5.22202
6.51452
1.11569
0.862338
0.976294
0.867314
1.29764
1.56127
1.41971
1.87386
2.27455
2.71537
2.99761
0.99425
4.63633
4.81257
5.59006
0.964635
0.532886
0.421957
0.460092
0.42606
0.396671
0.401677
0.49467
0.535264
0.627015
0.578133
0.667742
0.709718
0.711792
0.759967
0.823951
0.421508
0.407905
0.417834
0.304297
0.303464
0.330321
0.34941
0.372164
0.36464
0.306067
0.349437
10.9353
7.30173
2.47821
2.7169
4.9653
4.35675
3.59392
8.10778
11.6782
3.65402
4.28726
5.04612
6.20935
1.23862
0.892837
1.06792
0.919244
0.979826
1.46353
1.57339
1.37164
1.94505
2.32959
2.63831
3.13335
1.47377
5.55449
5.89838
6.51456
1.20794
0.610831
0.444734
0.463044
0.429005
0.429567
0.502864
0.534684
0.617386
0.580803
0.681161
0.711793
0.749131
0.798986
0.85711
0.474619
0.456775
0.45167
0.400131
0.330298
0.332456
0.351184
0.365318
0.381392
0.330769
0.412302
11.7556
8.623
6.4432
5.50839
1.92308
2.16862
2.59469
4.1624
3.56008
3.08902
1.56117
8.09184
11.4655
11.6747
3.6375
4.28798
5.73851
5.04662
1.19567
0.943882
1.04419
0.973717
1.51542
1.70893
1.33248
3.13816
2.00076
2.24162
2.7031
1.59774
6.75776
7.27315
8.13365
0.473387
1.4475
0.63117
0.46664
0.466566
0.554011
0.531775
0.636349
0.643753
0.598478
0.691275
0.752918
0.811264
0.537123
0.500035
0.485586
0.428654
0.414887
0.351334
0.347284
0.371955
0.394283
0.355374
0.440581
0.617021
0.702066
8.36457
6.67936
5.12869
4.42389
1.77569
2.19127
2.62916
3.42764
2.94203
1.4646
1.24731
1.07337
0.860721
0.799973
10.8309
7.80641
10.8555
8.13343
3.16462
3.67723
4.21667
5.60405
1.17295
0.996242
1.0563
1.72703
1.52246
1.33607
1.26962
2.69359
2.68788
1.97713
2.33248
1.9546
9.22487
8.37592
9.37189
0.665267
1.55654
0.501419
0.557425
0.639107
0.583255
0.686676
0.732801
0.786202
0.541475
0.52055
0.462879
0.440205
0.418149
0.380345
0.375293
0.39912
0.513426
0.384187
0.741298
0.619382
0.680215
6.409
5.41963
4.19619
3.58392
1.79217
2.24733
2.47653
2.82513
1.57428
1.23732
1.30377
0.760503
1.04561
0.825783
0.900504
8.01285
6.67113
6.2525
5.15082
3.00251
3.52707
4.60312
2.63039
1.13366
1.0573
1.64541
1.40684
1.532
1.36024
1.22197
2.36244
2.40651
2.00183
1.80371
11.3056
10.5273
11.3643
1.07518
1.74626
0.552436
0.325692
0.635582
0.700511
0.759614
0.561334
0.49899
0.479268
0.452833
0.426529
0.403019
0.396361
0.462743
0.401866
0.691125
0.616146
5.04642
5.20355
4.42532
3.43665
2.91191
1.92208
2.12035
2.36741
1.64355
1.45871
1.28052
0.768993
0.819099
1.128
0.891279
0.984568
5.79421
5.17641
5.13595
4.29851
2.32756
3.11933
3.40962
2.69069
4.32648
1.1215
1.72947
1.56774
1.47289
1.30098
1.19121
1.80687
1.99252
2.03128
1.84959
15.1855
13.6374
15.6481
3.07331
0.617829
0.901211
0.681398
0.743257
0.54147
0.513411
0.483969
0.459919
0.433655
0.429523
0.471743
0.437808
0.67673
0.587682
4.25038
4.32604
3.54113
2.79965
2.41798
1.82953
2.01411
1.58802
1.39072
1.23524
0.73914
0.801274
1.10345
0.887542
0.980629
4.27265
4.13339
3.34532
1.89332
2.0972
2.38375
2.6044
3.55148
1.50034
1.37258
1.25155
1.64509
1.58003
1.79791
2.64438
20.8831
27.3954
9.45334
0.677889
1.11669
0.739186
0.560258
0.525762
0.4952
0.462856
0.458289
0.506332
0.641493
0.605448
3.51507
3.45936
2.81686
2.32353
2.0518
1.73467
1.51063
1.32712
1.17599
0.701314
0.770843
1.04884
0.849662
0.94195
3.40615
3.40175
2.78919
1.95536
2.1278
2.30828
1.81823
2.82758
1.41158
1.30882
1.5097
1.54038
1.67697
4.70868
46.1596
45.4972
21.3399
0.754564
2.34205
0.566036
0.536535
0.494036
0.502083
0.61856
0.66322
0.617523
2.83005
2.81309
2.33797
1.98757
1.76637
1.53934
1.35298
1.20186
0.722681
0.795329
1.07356
0.873576
0.967579
2.78428
2.77102
2.32925
1.85494
1.98324
1.68678
2.347
1.35724
1.43021
1.45601
1.52722
1314.46
10.0952
77.9237
81.0461
51.3596
1482.09
0.57955
0.541244
0.556469
0.553662
0.848693
0.669739
0.63024
2.30199
2.32658
1.99986
1.72339
1.50583
1.33252
1.18733
0.734069
0.800822
1.07025
0.880699
0.966507
2.21336
2.23581
1.98269
1.68309
1.53065
1.95586
2.00959
1105.65
1207.59
23.4046
139.853
140.027
1581.96
1368.81
1951.43
0.594757
0.541555
0.613937
0.610639
1.4181
0.685712
0.625129
2.01128
2.00478
1.7267
1.50891
1.33495
1.1959
0.749651
0.819722
1.08029
0.982877
0.896165
1.97308
1.75619
1.5274
1.74006
1.81119
1.77997
765.516
976.037
1147.97
53.4522
1532.85
1304.34
1833.49
1961.7
0.621454
0.617012
0.68308
3.0532
0.69939
0.634824
1.67086
1.68281
1.48697
1.32162
1.19071
0.75048
0.83217
1.08565
0.991898
0.909469
1.76057
1.57274
1.623
1.65276
1.63803
1.61587
713.735
612.105
896.913
1138.71
1897.51
1679.2
1524.2
1292.62
1911.18
1981.02
0.660359
0.681192
0.756218
0.681861
0.700276
0.74003
1.54804
1.37307
1.2523
1.13419
0.810668
0.822035
1.06372
0.964323
0.918441
1.57055
1.5248
1.52905
1.50798
1.48163
557.983
507.691
864.069
1195.16
2190.39
1965.57
1473.5
1725.38
1572.53
1349.43
2039.07
2022.57
0.695953
0.723837
0.739428
0.761957
0.822645
1.45043
1.33284
1.23496
1.13747
0.853103
0.878223
1.06159
0.990498
0.932847
1.42033
1.38875
1.34338
2450.96
445.514
441.071
884.205
1369.7
2212.51
2138.55
1260.11
1496.01
1817.19
1713.76
1528.23
2269.03
2098.66
0.726053
0.752575
0.787707
0.820104
1.3213
1.27178
1.2044
1.13311
0.865952
0.90919
1.06606
1.0083
0.953784
2895.51
2421.29
366.618
407.021
990.214
1881.85
2276.87
2426.74
1155.71
1260.37
1550
1968.61
2040.7
2051.81
2678.19
2237.01
3321.94
3009.02
2396.88
314.349
408.293
1333.78
4454.56
2421.04
2930.59
989.024
1163.29
1290.33
1654.62
2223.63
2896.07
4638.6
3463.23
2480.28
3374.41
3730.28
3055.42
2413.95
292.755
487.424
3079.08
2703.21
3777.43
876.894
999.864
1193.16
1365.63
1844.85
2686.67
6776.34
5315.14
3328.12
3868.99
4149.7
3087.5
2526.2
322.081
958.481
3284.3
5364.65
596.861
869.579
1048.54
1261.87
1514.69
2208.08
3718.2
12567.7
2677.07
3691.42
4512.81
4527.55
3165.58
2828.96
573.981
4693.71
129.284
536.981
868.505
1148.91
1397.45
1807.73
3042.59
7544.91
2913.05
3105.71
4042.28
5372.83
4859.59
3400.96
3638.68
10115.2
83.7188
121.439
493.306
873.633
1332.52
1665.97
2486.84
6174.24
2432.78
3306.96
3644.5
4411.74
6530.95
5250.37
4126.4
6828.68
91.1743
88.1429
117.576
462.952
887.928
1679.33
2289.58
4978.68
1331.02
2826.61
3766.42
4313.72
4844.83
7939.62
6145.34
7109.12
97.2216
99.1876
95.7614
118.789
446.987
922.932
2459.79
4556.39
1074.38
1549.61
3270.13
4341.21
5136.24
5749.6
9646.6
9594.49
97.6943
105.687
110.74
107.941
128.818
449.71
1032.74
5230.84
930.195
1170.07
1773.05
3798.35
5167.06
6151.65
7954.95
11964.7
92.3584
106.141
117.891
127.701
127.757
160.347
520.429
1298.51
947.24
1044.84
1279.37
2056.13
4443.88
6528.21
8213.94
11073.6
85.3095
100.282
118.327
135.869
154.168
163.409
249.632
1060.45
1071.94
1058.06
1171.74
1429.5
2480.1
5263.71
9351.26
18305.9
128.448
89.7416
111.807
136.294
164.025
200.823
246.35
662.697
1339.94
1170.92
1182.75
1334.42
1666.53
3221.33
6564.3
15178.7
577.349
121.151
97.4212
128.798
164.452
213.96
307.813
600.144
2461.11
1555.09
1283.6
1344.63
1575.19
2089.84
4717.26
11705
901.616
523.289
117.718
109.704
155.394
214.411
328.777
763.811
3034.85
2868.19
1775.25
1436.53
1585.99
1988.46
3014.35
9088.11
1000.68
888.322
481.809
119.341
129.698
202.382
329.348
817.165
2747.2
3553.65
3366.48
2043.87
1675.74
2001.96
2868.83
6005.74
1174.23
1015.61
885.537
451.994
129.957
165.662
310.211
817.142
3383.73
3263.12
4186.53
4060.15
2428.88
2110.46
2890.78
5719.04
1268.83
1185.47
1069.46
890.704
436.153
162.012
249.023
767.085
3312.17
3823.37
4029.05
4962.86
5096.69
3054.33
3071.54
5791.6
1486.15
1271.47
1220.43
1176.01
905.9
438.902
251.597
601.781
3216.01
3795.93
4411.11
5291.39
5946.87
6899.96
4312.57
6259.95
1705.83
1513.68
1305.29
1295.62
1367.79
943.957
509.473
662.145
2899.36
3593.68
4443.17
5266.48
7594.06
7503.69
12996.1
8282.7
2081.57
1891.09
1763.58
1573.74
1385.72
1439.92
1727.51
1057.62
1047.87
2436.82
3024.54
4006.23
5288.62
6580.86
12860.9
10944.4
66114
1696.82
2082.92
1987.29
1868.44
1684.7
1541.88
1722.49
2538.76
1341.44
2175.95
2407.12
3079.86
4432.06
6430.67
8668.26
27843
14146.9
1848.16
1532.35
1655.55
2103.71
2130.37
2032.97
1882.56
1847.64
2376.71
5421.31
2185.31
2380.78
3101.98
4866.03
7938.68
12079
77298
1911.76
767.186
1437.59
1435.18
1656.04
2149.72
2380.01
2303.04
2257.94
2553.09
4760.25
851.42
1214.18
2240.51
2393.91
3165.79
5380.78
9748.49
10886.7
2070.57
600.813
1323.29
1380.81
1716.68
2234.06
2818.27
2787.13
3117.42
5150.4
678.412
1084.4
2377.46
2501
3398.94
6331.64
11494.5
2344.08
480.444
1260.93
1379.1
1878.51
2385.28
3654.37
3856.72
6354.68
563.578
1004.11
2651.18
2797.35
4117.77
9617.21
2826.99
395.833
1254.5
1449.52
2243.1
2651.4
5632.2
7834.75
489.673
972.633
3215.99
3592.86
7032.57
3658.59
339.228
1321.39
1653.54
3195.13
13422.2
450.659
999.546
4585.26
6725.16
5225.96
314.815
1521.41
2238.13
7538.65
448.704
1121.88
9841.51
342.996
2101.49
5136.78
527.302
1509.27
609.998
5000.06
1009.36
3464.45
0.90603
0.866231
0.890953
0.890877
0.920136
0.916308
0.92983
0.929213
0.947149
0.833825
0.854737
0.862929
0.88669
0.893371
0.916653
0.926043
1.00139
1.02548
1.04915
1.08566
1.1129
0.946267
0.95898
0.94517
0.946336
0.954579
0.949141
0.973685
0.965975
0.992034
1.1561
1.17646
0.806156
0.828102
0.839613
0.861516
0.873031
0.892846
0.909462
0.929274
0.945685
0.964006
0.98332
1.00308
1.03274
1.05948
1.10898
1.13637
1.22581
1.24036
0.976865
0.991826
1.01139
1.02749
1.05185
1.07372
1.1143
0.972248
0.976756
0.974599
0.973644
0.992973
0.981238
1.02188
1.00875
1.04181
1.11398
1.14383
1.3107
1.33629
1.22355
1.21772
1.29944
0.786538
0.805916
0.822445
0.841354
0.858982
0.877609
0.897728
0.915323
0.943132
0.963774
0.98904
1.00869
1.07329
1.09956
1.14792
1.17131
1.24331
1.26842
1.34939
1.38608
1.47949
1.49378
1.62706
0.999362
1.00867
1.02781
1.04396
1.06909
0.997953
0.999802
1.00857
1.00126
1.03385
1.01939
1.09376
1.06965
1.05299
1.07843
1.13802
1.14206
1.22521
1.25104
1.57202
1.36583
1.48736
1.31651
1.36243
0.775555
0.793401
0.813493
0.832521
0.853496
0.87153
0.89409
0.914472
0.935677
0.960774
0.991051
1.03213
1.16785
1.1039
1.21373
1.26808
1.34314
1.36468
1.45023
1.67544
1.72295
1.74184
2.01145
2.04358
1.94675
2.09065
2.0936
2.81711
1.02165
1.03131
1.04779
1.06375
1.14623
1.118
1.02625
1.02336
1.04387
1.03342
1.09658
1.07437
1.05996
1.19813
1.16828
1.08894
1.12869
1.15994
3.64273
3.07192
5.66913
1.23234
1.23554
1.32376
1.35503
1.61048
1.64125
2.30832
1.93662
1.55234
1.61927
0.781369
0.795419
0.82057
0.836497
0.863021
0.879549
0.908972
0.928785
0.991609
0.968645
1.04763
1.07478
1.1705
1.18744
1.36751
1.36515
1.5475
1.56039
1.73238
1.76394
1.94651
22.6201
21.2084
12.5003
2.00956
2.23275
2.40821
2.67695
2.95277
3.10373
3.09222
11.6238
4.9353
1049.71
1328.23
1243.7
1827.48
1541.14
1656.01
1768.08
1836.76
1.04704
1.04919
1.07232
1.08641
1.14232
1.11815
1.05712
1.0506
1.10025
1.08145
1.07019
1.252
1.21984
1.18996
1.16376
1.10701
1.15457
1.25106
1.18779
1.24212
894.999
629.082
109.707
57.4512
25.0475
2.46109
4.08908
5.37199
14.9051
1.36637
1.37241
1.38177
1.37272
1.59696
1.62987
1.76975
1.70564
2.29268
961.184
1258.29
1472.71
1399.35
1619.81
1764.84
1798.41
1857.31
1809.37
1760.72
0.872383
0.838275
0.903044
0.891283
0.949381
0.941648
0.99992
0.995856
1.05292
1.05092
1.12052
1.11908
1.23847
1.26965
1.32045
1.33802
1.1631
1.45809
1.27094
1.31967
2.81091
2.80737
3.38497
3.81176
3.72511
58.3947
94.1836
300.498
182.572
56.3559
39.1393
6.34655
8.4032
12.1532
11.4521
36.1244
16.7714
14.8295
390.124
930.565
614.535
675.502
956.021
1183.39
1309.84
1303.23
1608.4
1596.64
1606.07
1519.16
1823.93
1883.63
1917.68
1741.59
1890.82
1811.68
1.07565
1.07597
1.097
1.11297
1.14477
1.12134
1.10973
1.09199
1.0817
1.30377
1.26924
1.23593
1.20897
1.18381
1.1606
1.12807
1.17413
1.17978
1.24303
1.24822
1.31096
1.24022
185.287
492.103
331.534
848.264
525.189
92.2307
198.283
70.5831
23.7302
1.37642
17.404
3.06502
6.21463
4.38356
1.54583
1.48159
1.66837
1.56233
1.70529
1.69315
1.93471
1.79347
3.07728
949.782
1332.42
846.975
1460.93
1650.97
1261.08
1490.42
1772.4
1777.46
1795.45
1616.15
1797.52
5.16758
1.15945
103.717
29.1431
2.42199
1.1865
1.78985
1.1375
1.48655
1.09042
1.32635
1.29365
1.24767
1.40512
1.37257
1.60656
2.28928
1.43197
2.74896
4.13132
4.26278
7.77425
22.2897
8.64416
9.29057
39.2837
42.6574
14.8778
13.5977
19.0682
19.9656
26.6777
28.3056
122.1
185.503
344.725
238.084
132.77
83.7387
49.3242
54.2236
99.111
66.7293
73.0129
608.467
480.476
648.885
963.35
854.321
1267.35
1172.28
1578.53
1415.59
1475.61
1678.68
1847.29
1773.72
1672.72
1856.57
1938.29
1945.33
1.13363
1.1042
1.10201
1.12192
1.14425
1.1257
1.11747
1.14607
1.3585
1.32212
1.28275
1.25211
1.22405
1.19715
1.1811
1.15871
1.40807
1.35052
1.4094
1.46357
1.4243
1.45733
1.1989
1.19447
1.20068
1.22586
1.39294
1.30063
1.33789
1.25587
505.818
397.299
234.293
35.607
172.565
96.0739
1.47899
1.75456
1.68227
44.9684
4.3999
12.4857
7.69193
1.97512
1.89776
2.08162
2.011
2.39941
2.10334
5.15417
465.897
1041.03
1313.77
901.614
645.921
1473.26
1208.37
1518.33
992.499
1796.47
1841.1
1923.25
1805.62
1665.78
222.321
246.272
59.0007
11.557
252.719
218.88
30.4906
11.1228
21.3224
6.40276
13.4834
4.23681
9.34753
2.35871
4.42375
10.1073
30.238
18.3168
37.3074
20.0416
26.5679
65.0678
101.775
111.562
56.9197
53.944
120.643
137.446
62.5584
70.1366
95.1545
96.2261
126.474
103.606
402.454
215.692
290.859
269.004
210.889
189.667
238.947
141.102
220.598
715.448
527.256
1197.7
937.082
1045.65
1487.6
1333.54
1675.8
1590.7
1779.72
1721.02
1.43958
1.40581
1.13097
1.14767
1.15065
1.13509
1.13305
1.15822
1.17539
1.32593
1.28102
1.2634
1.22853
1.21536
1.1898
1.18094
1.16277
1.37061
1.33306
1.35303
1.3793
1.33167
1.36312
1.19333
1.20277
1.21473
1.2643
1.51439
1.37881
1.41201
1.30704
91.7234
191.398
291.498
1.63516
1.94067
1.90077
2.34675
2.31933
23.7038
102.278
7.07193
21.6021
2.58329
2.3316
4.04304
2.96189
8.17326
314.367
604.467
518.05
1137.44
1172.04
1387.04
1801.87
1939.14
1030.65
1658.93
2062.16
2000.54
2022.1
1875.29
223.085
198.723
102.351
249.125
231.569
290.704
234.685
151.646
319.664
395.976
225.19
107.482
175.417
66.7446
124.748
50.7632
65.7509
89.0604
64.46
143.97
110.861
102.986
103.662
113.173
219.894
241.708
259.822
295.885
188.744
181.47
321.606
339.335
206.516
226.596
290.391
283.396
325.107
552.362
456.74
517.305
358.686
458.245
467.911
415.274
503.81
1028.92
827.387
1386.25
1239.64
1594.98
1516.26
1676.92
1611.66
1.48239
1.42109
1.37562
1.34152
1.16705
1.16276
1.16426
1.17479
1.191
1.29984
1.27312
1.24799
1.22827
1.20865
1.1944
1.18583
1.29704
1.3165
1.2766
1.30354
1.27942
1.30286
1.20829
1.20965
1.23624
1.33388
1.25238
1.21372
1.68171
1.52458
1.54351
1.41782
1.82099
234.341
140.666
2.1926
2.22211
2.53567
2.61137
3.44896
4.11024
2.55353
26.6863
127.265
31.9087
9.78815
6.28699
28.6305
587.867
389.223
1298.4
1036.27
1760.86
1887.47
2164.88
2179
2253.74
2141.13
6.54719
33.2068
256.866
280.884
64.4734
236.91
310.735
252.147
417.658
447.126
256.89
338.181
455.198
436.264
454.397
299.529
376.796
278.135
242.584
228.003
388.274
290.867
400.934
332.525
340.509
455.471
503.058
502.828
531.406
448.52
427.719
379.668
594.507
611.907
472.947
491.764
631.942
628.655
821.023
927.449
805.232
768.216
834.116
745.651
807.04
1283.37
1180.91
1453.74
1385.24
1492.83
1430.83
0.889924
1.61188
1.49827
1.4598
1.41379
1.35988
1.32535
1.29072
1.18042
1.18373
1.18353
1.18498
1.21487
1.26202
1.24565
1.22496
1.21255
1.19832
1.23199
1.2533
1.2324
1.25515
1.24466
1.26406
1.21317
1.27052
1.28471
1.4307
1.25572
1.28038
1.92666
1.60228
1.68074
1.45149
2.26545
2.70922
2.81919
461.768
187.972
2.96733
2.37546
9.06853
4.34938
41.7994
34.9418
22.9659
143.013
231.702
81.2289
1260.61
781.128
1930.56
1712.21
2233.2
2282.58
2497.34
2452.17
3.29561
20.3705
254.28
394.88
41.0835
148.934
413.957
329.862
325.703
438.776
344.948
274.505
601.995
411.682
540.974
576.302
579.234
583.884
581.529
505.799
496.48
622.381
596.167
604.253
626.52
752.564
708.496
724.29
730.441
747.949
716.134
856.42
645.29
696.865
875.801
836.856
790.258
804.114
931.367
930.914
1010.41
1012.37
1199.23
1053.8
1070.23
1307.28
1251.42
1303.58
1258.69
0.781647
0.836923
0.893199
1.50991
1.46198
1.44294
1.40826
1.39154
1.35812
1.31211
1.25438
1.28782
1.38025
1.40434
1.19917
1.18673
1.17878
1.18026
1.21525
1.19532
1.1911
1.2015
1.21512
1.20603
1.22683
1.22243
1.23845
1.22687
1.26147
1.31399
1.4062
1.45667
1.34611
1.83556
2.31722
1.59933
1.90953
2.58956
3.69341
2.85789
3.8554
7.54815
2.04205
913.506
534.916
37.9584
15.045
152.716
88.3815
402.598
712.745
301.674
1812.74
1579.73
2289.93
2396.47
2719.72
2712.11
2.4152
12.8014
215.281
451.59
24.6515
97.8975
464.622
483.323
258.639
289.782
473.275
335.325
544.261
478.397
267.325
344.056
668.462
503.128
566.534
538.407
624.396
679.899
678.167
631.845
661.367
720.637
705.219
708.028
857.203
807.035
771.06
755.903
704.852
847.173
869.512
953.203
892.907
901.711
974.589
988.385
956.672
969.387
999.586
1016.46
1189.09
1142.04
1053.74
1180.36
1155.65
0.769988
0.791141
0.82273
0.890131
0.933563
1.447
1.36857
1.35775
1.33361
1.33293
1.23058
1.2768
1.25674
1.30489
1.33148
1.31987
1.30181
1.32665
1.28939
1.28725
1.24439
1.2459
1.23079
1.19021
1.18799
1.18889
1.19276
1.22313
1.18837
1.19738
1.20448
1.21109
1.20839
1.22416
1.22853
1.26186
1.35394
1.29482
1.42405
1.58348
1.53495
1.68753
2.20755
2.72246
1.9055
2.30273
3.33287
4.8963
15.2788
10.9956
9.42172
21.5615
75.8324
65.9719
1708.28
1162.53
335.732
313.017
802.054
1251.96
769.314
2260.01
2455.73
2827.44
2994.41
1.95513
7.66919
164.033
428.398
14.3182
57.5918
439.856
556.65
313.497
255.492
544.12
424.482
359.276
293.961
242.568
246.839
564.12
543.037
306.535
428.566
351.348
433.526
542.42
627.397
607.828
596.67
558.786
567.561
511.525
708.452
705.116
591.513
515.922
543.238
530.333
719.221
766.802
974.342
1007.66
1004.41
985.591
990.943
1011.65
1029.7
987.059
994.401
1.32363
0.778934
0.786088
0.806134
0.833572
0.868051
0.933758
0.978669
0.801659
0.799763
0.834657
0.826244
0.874307
0.857734
1.20019
1.21132
1.15704
1.16992
1.10941
1.12627
1.05923
1.08142
0.918303
0.896945
0.96449
0.938546
1.01111
1.03354
0.984316
1.29945
1.28969
1.27294
1.28008
1.24856
1.23762
1.26403
1.25785
1.25578
1.24176
1.26506
1.21755
1.22071
1.17622
1.18212
1.22968
1.19285
1.21051
1.19137
1.20776
1.21015
1.20643
1.21302
1.21324
1.22404
1.23404
1.23271
1.23219
1.22943
1.32643
1.25608
1.4854
1.37494
1.57303
1.83135
1.72732
2.04312
2.67019
3.92632
2.41869
3.06068
4.51259
13.6137
162.407
100.817
193.65
42.9546
177.126
457.162
569.79
2306.23
1860.66
1134.23
1875.29
1214.32
2928.9
2984.21
1.54397
4.90734
413.417
102.391
196.381
8.69244
34.8311
563.447
596.231
367.434
280.788
588.923
457.239
638.696
238.572
235.139
227.398
422.463
366.635
215.419
255.263
283.478
236.709
375.726
438.182
399.159
355.191
375.478
329.607
388.096
315.704
400.747
254.027
337.313
237.604
321.497
552.484
990.661
950.129
683.25
938.713
895.185
1.23643
0.97418
1.01845
0.812858
0.821319
0.846426
0.879325
0.917957
0.831038
0.833027
0.857219
0.856467
0.8918
0.88514
1.13581
1.14849
1.09672
1.11245
1.05457
1.0721
1.01266
1.03321
0.93119
0.918281
0.970546
0.992871
0.954488
1.24802
1.23879
1.22897
1.24416
1.23665
1.20137
1.20682
1.19661
1.21977
1.16453
1.17085
1.12434
1.13403
1.23027
1.23169
1.23104
1.24256
1.23522
1.24225
1.24449
1.23704
1.24792
1.26802
1.25053
1.25262
1.24835
1.37846
1.30172
1.31066
1.63747
1.45719
1.74689
2.20306
2.08288
2.59156
3.55148
7.71215
3.16773
4.97295
9.85769
74.0071
581.838
733.387
513.892
751.782
199.888
633.281
1112.38
1416.99
1911.7
3117.54
2351.81
1.38907
2.19712
4.32272
234.515
483.9
58.2076
143.023
14.742
543.124
662.117
344.332
251.185
633.876
390.951
665.134
623.144
511.568
507.996
197.481
214.838
283.721
247.452
179.39
191.873
201.321
179.884
237.741
264.171
251.498
223.471
214.546
199.227
170.668
160.189
142.659
124.376
166.117
118.669
708.847
194.851
506.975
2929.5
1.0214
1.09672
0.926402
0.985528
0.848469
0.863873
0.894212
0.863307
0.866433
0.884055
0.885517
0.911035
0.909942
1.0879
1.10109
1.05086
1.0689
1.01245
1.03226
0.977427
0.999754
0.944609
0.967346
0.937205
1.20964
1.20819
1.20324
1.19714
1.15771
1.17084
1.16293
1.19196
1.1228
1.13472
1.08866
1.10001
1.2324
1.21768
1.2581
1.24778
1.32392
1.29697
1.34125
1.32944
1.28021
1.29659
1.34772
1.30519
1.27877
1.37922
1.29814
1.29844
1.52519
1.51492
1.83952
1.82042
2.61723
2.47367
3.95763
2.9688
5.65836
18.1575
4.42151
8.11496
52.2825
253.885
504.473
1294.99
1409.84
1181.23
1232.52
1611.28
1963.94
2219.16
29.3477
1.17987
1.22296
2.01866
2.71646
8.90517
376.881
91.6323
184.809
625.211
436.737
230.091
299.219
634.193
654.252
319.841
410.426
664.054
607.537
527.024
419.944
171.518
194.332
187.614
178.237
153.367
157.354
152.089
152.945
156.301
166.76
118.739
122.031
95.7511
96.1676
85.7816
82.971
112.637
84.2653
1.00118
1.06239
0.891071
0.912758
0.955931
0.896809
0.913295
0.914022
0.916639
0.932449
0.934814
1.05516
1.07044
1.01974
1.04279
0.989483
1.0109
0.962435
0.983651
0.957069
1.20643
1.18318
1.18143
1.18428
1.12978
1.14633
1.17926
1.14624
1.09631
1.11461
1.06782
1.08325
1.26475
1.24104
1.24059
1.30514
1.27982
1.41893
1.40549
1.39392
1.42643
1.55511
1.49987
1.50279
1.46522
1.43988
1.37247
1.33802
1.51311
1.45061
1.56302
2.04097
1.7909
3.34885
3.48291
2.43144
3.2749
5.41247
5.82906
23.8793
73.3798
19.5539
202.763
416.351
745.616
1413.64
1952.78
1974.55
2294.65
8028.83
136.887
1.10065
17.5471
45.8441
1.21759
1.31653
1.38413
2.23451
3.11822
7.99831
372.866
258.472
642.193
584.502
200.735
254.098
699.527
679.92
276.608
367.959
641.868
559.965
427.47
146.727
170.525
125.894
129.96
129.496
119.652
103.217
106.029
85.9995
89.7203
80.5136
81.7629
79.48
82.2295
1.05254
0.934926
0.980131
1.0146
1.02562
0.932211
0.953221
0.943819
0.951628
0.958047
0.959537
1.03392
1.05668
1.00778
1.03025
0.981663
1.00498
0.980629
1.06155
1.17896
1.17792
1.18516
1.16167
1.13988
1.11595
1.1885
1.11464
1.09515
1.09131
1.25976
1.22244
1.28798
1.32963
1.33367
1.4152
1.4018
1.55821
1.59874
1.6561
1.63102
1.84736
1.8435
1.78067
1.59544
1.55458
1.75571
1.7159
1.89049
1.8807
2.6335
2.56262
6.39023
6.57338
6.1044
4.60803
35.723
26.2912
263.816
163.718
595.459
765.82
1122.79
1978.25
272.153
80.8956
134.687
1.25492
1.17176
12.4443
38.6143
1.3478
1.62762
2.20013
2.65858
7.9545
551.22
429.627
715.164
694.73
176.604
232.062
728.897
653.262
532.41
417.861
274.584
125.224
145.495
97.8971
107.161
104.578
86.461
90.1918
84.3611
84.9521
85.9958
87.6825
1.11704
1.18049
0.983488
0.998066
1.07101
1.14003
0.976448
0.990899
0.977271
0.989979
0.98931
0.995765
1.05682
1.03962
1.01758
1.03431
1.01198
1.25347
1.09514
1.0789
1.0786
1.16911
1.17901
1.14515
1.23414
1.187
1.15806
1.12807
1.34375
1.3309
1.42557
1.39609
1.51586
1.50304
1.72183
1.67079
1.92241
2.02193
2.53687
2.34055
2.21465
1.99877
1.91849
2.0931
2.08828
2.41757
2.49432
2.46348
5.29412
4.20311
38.8594
13.108
17.919
10.3338
284.865
155.33
749.801
519.168
1064.74
943.075
417.512
191.933
282.798
63.0262
124.056
1.43859
1.27654
11.9067
32.5358
2.60967
1.52804
5.39201
676.87
581.295
757.594
774.633
237.915
173.914
144.467
736.564
544.138
440.056
309.734
254.389
102.059
116.779
87.145
91.0243
85.7305
85.5713
90.9558
89.4907
1.21398
1.32719
1.02714
1.08558
1.14397
1.25206
1.02507
1.05469
1.03564
1.01043
1.04912
1.04779
1.08204
1.05597
1.07429
1.33015
1.28873
1.14467
1.12967
1.14664
1.13444
1.19898
1.26824
1.18086
1.205
1.17429
1.51916
1.51266
1.44942
1.67039
1.62479
1.86661
1.99466
1.94561
2.34821
2.28511
4.17306
3.21273
3.31278
3.00479
2.81778
2.7083
3.82576
3.86262
3.7488
3.38501
6.42892
23.4366
16.5123
200.132
90.1169
94.4269
586.007
408.615
960.378
783.635
342.157
538.424
645.338
163.779
314.243
48.8083
114.631
1.46237
1.83157
7.57577
31.146
2.02548
4.61844
794.958
768.171
795.377
775.622
851.103
149.88
174.93
115.956
660.569
503.234
333.855
280.198
171.012
87.3743
97.3333
85.3372
83.4515
91.4512
88.5995
1.37148
1.56835
1.10145
1.16944
1.25539
1.42144
1.11139
1.08676
1.14807
1.14379
1.14105
1.13664
1.12915
1.42668
1.32344
1.19917
1.21027
1.18003
1.23741
1.31059
1.25829
1.31314
1.25193
1.8521
1.75948
1.7179
1.57845
2.28919
2.59646
2.40008
2.61098
2.97157
2.79713
3.89557
3.33896
4.97107
5.46786
5.37769
3.63447
8.24652
8.53898
6.62121
74.7448
38.0587
201.114
182.885
507.622
398.799
798.813
707.57
365.527
547.732
677.067
165.414
323.557
45.0494
113.815
2.50845
1.84026
7.93558
5.33414
24.0811
672.109
890.121
880.666
890.142
814.817
864.348
702.831