/*--------------------------------*- C++ -*----------------------------------*\
  =========                 |
  \\      /  F ield         | OpenFOAM: The Open Source CFD Toolbox
   \\    /   O peration     | Website:  https://openfoam.org
    \\  /    A nd           | Version:  8
     \\/     M anipulation  |
\*---------------------------------------------------------------------------*/
FoamFile
{
    version     2.0;
    format      ascii;
    class       volVectorField;
    location    "12000";
    object      U;
}
// * * * * * * * * * * * * * * * * * * * * * * * * * * * * * * * * * * * * * //

dimensions      [0 1 -1 0 0 0 0];

internalField   nonuniform List<vector> 
4109
(
(10.1198 0.000520007 0)
(10.1223 0.000554818 3.80148e-21)
(10.124 0.00250639 0)
(10.1218 -0.000210494 -8.19698e-21)
(10.1242 0.00150681 3.94214e-22)
(10.1269 0.00237522 6.58395e-23)
(10.1278 0.0025161 -2.42443e-22)
(10.1334 0.00401898 0)
(10.1288 0.00239056 0)
(10.123 0.000391488 -2.81865e-21)
(10.125 0.00129464 3.42504e-21)
(10.1338 0.00314678 1.51357e-21)
(10.1364 0.00797738 2.23586e-21)
(10.1368 0.00429742 -1.00367e-22)
(10.1346 0.00331445 2.34232e-21)
(10.13 0.00222562 -8.78716e-22)
(10.1243 0.000620722 5.41815e-22)
(10.1267 0.00160587 6.36877e-23)
(10.1356 0.00323649 0)
(10.1404 0.00369852 -3.19267e-21)
(10.159 0.00816732 1.8378e-21)
(10.1427 0.00842387 -5.04313e-21)
(10.1466 0.00601193 -5.5689e-22)
(10.1312 0.00229553 -2.20056e-21)
(10.1285 0.00175792 8.96504e-21)
(10.1256 0.000841915 3.03405e-21)
(10.1329 -0.00212118 0)
(10.1362 -0.00228473 8.95721e-22)
(10.1404 -0.00217463 -6.43557e-23)
(10.136 0.00326144 0)
(10.1419 0.00324071 0)
(10.1465 0.00465066 3.8745e-21)
(10.221 -2.49526e-05 -1.01467e-21)
(10.1507 0.00705242 -7.08855e-21)
(10.1489 0.00602233 0)
(10.132 0.00233859 -1.58308e-22)
(10.1279 0.00153965 -8.90494e-21)
(10.1266 0.000752503 -4.94814e-21)
(10.1327 -0.0021708 -1.43044e-21)
(10.1249 -0.00161759 0)
(10.1421 -0.00304179 -1.31645e-22)
(10.1392 -0.00333596 4.87827e-22)
(10.1418 -0.0089335 -1.53148e-22)
(10.1365 0.00334551 -2.22644e-21)
(10.1421 0.00324057 0)
(9.48073 0.0260947 7.08721e-22)
(10.135 -0.000372525 3.79805e-22)
(10.1489 0.00467058 -1.38833e-22)
(10.1496 0.00403347 6.71131e-22)
(10.2167 -0.00105437 4.62019e-21)
(10.1535 0.00533879 4.245e-21)
(10.1308 0.00203297 -1.30059e-22)
(10.1292 0.0018521 -8.64627e-21)
(10.1281 0.00102505 1.94538e-21)
(10.1329 -0.00250426 -9.36305e-22)
(10.1266 -0.00186495 0)
(10.119 -0.000357834 0)
(10.1416 -0.00527454 1.35752e-22)
(10.143 -0.00417531 1.51026e-22)
(10.1389 -0.0034786 0)
(10.2401 -0.00276658 -1.4412e-22)
(8.88599 0.0142838 0)
(10.1362 0.00330645 -7.59841e-21)
(10.1427 0.00324341 0)
(10.1487 0.00440065 5.9645e-22)
(10.2461 -0.00085841 -3.86203e-22)
(9.74636 0.0280931 1.58141e-20)
(10.15 0.00375849 0)
(10.1508 0.00631914 -9.50227e-22)
(10.2301 -0.00041738 -5.81408e-22)
(10.1298 0.00127664 2.60993e-21)
(10.1309 0.00226344 5.76699e-21)
(10.1355 0.00387977 0)
(10.1319 0.00140903 1.18028e-20)
(10.1331 0.00226748 -1.76126e-20)
(10.1339 -0.00284882 9.44334e-22)
(10.1284 -0.00195631 0)
(10.1266 -0.00176471 0)
(10.1205 -0.000467273 0)
(10.2207 0.00675958 1.69111e-22)
(10.1468 -0.00464907 7.81978e-22)
(10.1415 -0.00486511 -7.24458e-22)
(10.1451 -0.00361139 8.64057e-23)
(10.1395 -0.00389942 0)
(10.3543 0.0186122 1.21454e-21)
(10.258 8.38838e-06 0)
(9.37364 -0.0429345 0)
(9.21596 0.0310595 -3.08506e-20)
(8.84228 0.0202472 -1.04667e-21)
(10.1348 0.00273573 2.97179e-21)
(10.1371 0.00329305 7.6015e-21)
(10.1432 0.00334067 0)
(10.1492 0.00450052 -3.1259e-22)
(10.1506 0.00351459 -1.94613e-22)
(10.2875 -0.00495673 0)
(9.99272 0.0122723 0)
(10.1483 0.00594638 0)
(10.2206 0.000547577 3.07535e-22)
(10.1372 0.00394612 6.21124e-22)
(10.1343 0.00322134 -1.16154e-20)
(10.1318 0.00249019 1.32259e-20)
(10.1366 0.00384257 8.36543e-21)
(10.1383 0.00452526 5.3285e-21)
(10.1347 0.00274226 6.20952e-21)
(10.1342 0.00122737 2.42406e-21)
(10.1347 -0.00333374 3.94197e-22)
(10.1305 -0.00263749 3.49255e-22)
(10.1263 -0.00154502 0)
(10.1212 -0.000625892 2.82441e-21)
(10.2091 0.00182165 1.51339e-22)
(10.3295 0.00916244 0)
(10.1451 -0.00537328 -3.16386e-22)
(10.1455 -0.0042897 -3.09563e-23)
(10.1454 -0.00403439 0)
(10.1399 -0.00421122 0)
(9.01874 -0.0380158 -1.43674e-20)
(10.1706 -0.0132117 -1.0838e-21)
(9.90986 -0.0362082 1.72516e-20)
(9.56752 0.0395136 -7.20175e-21)
(9.04844 0.0114441 1.09999e-20)
(8.75678 -0.00319188 8.60836e-21)
(10.2989 0.00205924 1.38132e-22)
(10.1362 0.00331138 -1.35726e-20)
(10.1394 0.00391123 -2.34813e-21)
(10.1441 0.00368429 -7.50439e-22)
(10.1495 0.00479656 0)
(10.1514 0.00387444 6.21716e-22)
(10.1472 0.00611436 -1.98253e-21)
(10.0767 0.00439807 3.37563e-21)
(10.3092 -0.00162225 0)
(10.2078 0.000912623 2.33073e-22)
(10.1404 0.00521807 6.88208e-21)
(10.1373 0.00405962 -4.32256e-21)
(10.1387 0.00472958 -8.18175e-21)
(10.1409 0.00582848 5.06574e-22)
(10.1372 0.00155844 0)
(10.1375 0.00379761 -4.92329e-21)
(10.1355 -0.00386711 -7.71439e-22)
(10.1307 -0.0028184 0)
(10.1268 -0.00171627 1.06589e-21)
(10.1225 -0.000761086 -2.82412e-21)
(10.2107 -0.00126785 -2.22218e-23)
(10.3261 -0.00306421 0)
(10.1429 -0.00663654 0)
(10.1466 -0.00444268 -2.96712e-22)
(10.1457 -0.00421218 1.48475e-22)
(10.1404 -0.00470163 0)
(9.13902 -0.034634 -8.22438e-21)
(9.85907 -0.0391221 5.3549e-22)
(9.08638 0.00958474 0)
(9.64727 0.0186207 -3.784e-21)
(8.76041 0.022533 0)
(10.2683 -0.0013036 -1.28976e-22)
(10.1399 0.00438024 1.0819e-20)
(10.1395 0.00391623 2.34795e-21)
(10.145 0.00418079 7.13514e-22)
(10.1502 0.00562296 2.30383e-21)
(10.1514 0.00440711 1.08137e-21)
(10.1468 0.00696499 1.21346e-21)
(10.2021 0.00308261 -3.54682e-23)
(10.1214 0.00211372 -3.72156e-24)
(10.3213 -0.00265532 -2.32918e-22)
(10.1441 0.00619554 1.93091e-21)
(10.1402 0.00451995 0)
(10.1416 0.0062693 -3.14518e-22)
(10.1449 0.00725993 -1.66609e-21)
(10.1426 0.00640088 -2.08291e-22)
(10.141 0.0053858 0)
(10.1408 0.00177675 0)
(10.1365 -0.00457618 2.9635e-22)
(10.132 -0.00341936 1.15427e-22)
(10.1281 -0.00209011 -2.30088e-21)
(10.1232 -0.000650244 -4.76592e-22)
(10.2068 -0.00458738 -1.76199e-23)
(10.3265 -0.00414214 0)
(10.1409 -0.00768102 6.04177e-22)
(10.1483 -0.00456027 -1.45625e-22)
(10.1457 -0.00489665 -5.88119e-22)
(10.1414 -0.00561879 -3.61183e-22)
(9.77438 -0.0296451 -5.58932e-22)
(8.88279 -0.0128444 0)
(9.70551 0.016466 4.89237e-24)
(9.09611 0.00600612 4.68524e-22)
(8.7618 0.0207097 1.06555e-22)
(10.286 0.00324667 1.746e-22)
(10.1456 0.00443693 -2.48467e-23)
(10.1462 0.00485635 2.48385e-23)
(10.1519 0.00621629 -1.19665e-21)
(10.1479 0.00758401 -1.94592e-21)
(10.1549 0.00410069 -8.60698e-22)
(10.1906 0.00623441 1.03671e-21)
(10.1074 0.00497607 -2.30214e-22)
(10.3172 0.000769451 1.33304e-22)
(10.1469 0.00535802 -9.28974e-22)
(10.1477 0.0063639 4.87343e-22)
(10.146 0.00829211 -4.89933e-22)
(10.1487 0.00754905 -6.71716e-22)
(10.1477 0.00932253 4.86016e-22)
(10.1461 0.00770345 2.43884e-22)
(10.1421 0.00501486 1.84642e-21)
(10.145 0.000839192 0)
(10.1378 -0.00529825 -6.31981e-22)
(10.1332 -0.00388661 3.06469e-22)
(10.1295 -0.00251422 1.97387e-21)
(10.1248 -0.000894314 3.73141e-22)
(10.1929 -0.00629344 -3.4027e-22)
(10.3171 -0.00338875 -5.8258e-22)
(10.1398 -0.00787051 3.69972e-22)
(10.1495 -0.00534642 1.66362e-23)
(10.1463 -0.00650701 8.6091e-22)
(10.1428 -0.00687194 0)
(9.76129 -0.0191666 -1.30475e-21)
(8.86912 -0.0063871 6.30698e-22)
(9.07552 -0.00157028 0)
(9.68096 0.0117776 5.74834e-23)
(8.75445 0.0197072 -7.33298e-22)
(10.313 0.0116541 1.86411e-22)
(10.1528 0.00532398 0)
(10.1531 0.00566648 -9.09637e-22)
(10.1566 0.00420118 -2.99888e-21)
(10.1737 0.0130446 2.18458e-21)
(10.1067 0.00387625 2.76058e-24)
(10.3164 0.0024857 -4.78243e-22)
(10.1533 0.0070435 1.08625e-21)
(10.1536 0.00847634 2.02614e-21)
(10.1501 0.00887966 2.00931e-21)
(10.1543 0.010199 -1.38631e-21)
(10.152 0.0101481 -1.02258e-21)
(10.1498 0.0104215 0)
(10.1473 0.00743657 -2.0753e-21)
(10.146 0.00574257 -2.12155e-21)
(10.1494 0.000839965 0)
(10.1392 -0.00592426 -2.90175e-21)
(10.1346 -0.0042342 7.59942e-21)
(10.1312 -0.00288177 3.37631e-21)
(10.1263 -0.000970097 -6.36795e-22)
(10.1769 -0.00777508 -2.23823e-22)
(10.3019 -0.00406094 1.64796e-22)
(10.1509 -0.00737668 -8.12808e-22)
(10.1405 -0.00801559 1.06313e-21)
(10.1407 -0.00631338 0)
(10.1483 -0.00889145 0)
(10.1446 -0.00788978 0)
(9.8231 -0.0166477 2.84573e-22)
(8.87941 -0.00898428 4.80293e-22)
(9.68286 0.00519056 5.41455e-23)
(9.07975 -0.00895813 6.49925e-23)
(8.76071 0.0212342 -6.44733e-23)
(10.3285 0.0174035 -4.8062e-22)
(10.1584 0.00307802 0)
(10.1566 0.00473215 4.73027e-22)
(10.1652 0.0165013 7.37575e-22)
(10.1063 0.00380901 -1.11364e-21)
(10.3181 0.00804839 5.72115e-22)
(10.1571 0.0068499 -3.28717e-22)
(10.1584 0.00753072 -2.71815e-22)
(10.1553 0.0119701 -3.8449e-22)
(10.1598 0.0100946 0)
(10.1567 0.0139864 0)
(10.1542 0.0113782 -3.16058e-22)
(10.1523 0.011361 2.68212e-21)
(10.1505 0.00816132 -1.10995e-20)
(10.1503 0.00585816 0)
(10.1538 0.00095804 0)
(10.1372 -0.00503485 4.09556e-21)
(10.1344 -0.00405531 -5.55518e-21)
(10.1283 -0.00111049 2.3673e-21)
(10.1395 -0.00567202 4.09971e-21)
(10.1526 -0.0104444 1.88052e-21)
(10.279 -0.00504737 -3.34815e-21)
(10.1513 -0.00930113 -3.98689e-23)
(10.1429 -0.00689986 0)
(10.1464 -0.0085457 0)
(10.1507 -0.0100444 -5.70305e-22)
(8.88507 -0.00588916 2.92948e-22)
(9.86047 -0.0142525 5.09403e-22)
(9.08964 -0.0249304 8.00842e-22)
(9.6873 -0.00846988 -7.69004e-22)
(8.76628 0.0185057 0)
(10.3381 0.0272469 1.06696e-21)
(10.0158 -0.0174769 1.28641e-19)
(10.1675 0.0158546 0)
(10.1636 0.00995992 -2.24439e-22)
(10.1129 0.00559783 -1.49655e-20)
(10.3296 0.00657651 -4.23855e-21)
(10.1529 0.0129987 1.44334e-21)
(10.1558 0.0114505 -4.38129e-22)
(10.1611 0.0120486 2.8075e-21)
(10.154 0.016668 4.33366e-22)
(10.1632 0.0145049 -8.33696e-23)
(10.1585 0.0158278 -1.09679e-22)
(10.1568 0.0125625 0)
(10.1552 0.012274 -6.00989e-21)
(10.1543 0.00894504 2.24526e-20)
(10.1549 0.00632921 0)
(10.1556 0.00431096 6.96552e-21)
(10.1572 -0.000650317 0)
(10.129 -0.000615701 0)
(10.1351 -0.00352129 2.40266e-21)
(10.132 -0.00246949 -3.65139e-21)
(10.1405 -0.00555856 2.06942e-22)
(10.1444 -0.00711127 1.5966e-21)
(10.1386 -0.014525 0)
(10.2596 -0.00888378 1.4652e-21)
(10.1558 -0.0112634 1.24309e-21)
(10.148 -0.00901807 6.00243e-22)
(10.1532 -0.0104022 0)
(9.88878 -0.00620463 1.22869e-21)
(8.86757 -0.000143455 -6.84793e-22)
(9.10584 -0.0298233 4.09426e-20)
(9.74106 -0.0150064 -2.81295e-20)
(8.78121 0.0160069 3.21164e-20)
(10.3336 0.0299729 -9.97783e-22)
(10.0116 -0.00270925 -2.13045e-19)
(10.0142 -0.0198765 5.56055e-20)
(10.0108 -0.0138444 -6.25185e-20)
(10.022 -0.0211836 -8.28306e-20)
(10.0172 -0.00651317 1.88892e-19)
(10.028 -0.0266716 7.34154e-20)
(9.97294 0.0171364 2.76891e-20)
(10.3405 -0.0152701 1.93983e-20)
(10.2798 -0.0294903 -1.82417e-20)
(10.1918 -0.000130831 -1.46977e-21)
(10.2033 0.00179157 -6.07012e-21)
(10.158 0.011416 -2.76843e-22)
(10.1574 0.017793 0)
(10.1617 0.0209168 -1.63723e-21)
(10.1652 0.0160291 0)
(10.161 0.0176579 0)
(10.1612 0.00788436 4.34484e-20)
(10.1599 0.0137811 1.09202e-21)
(10.1588 0.0130599 1.87473e-20)
(10.1589 0.00966057 -1.89044e-20)
(10.1589 0.00369022 -6.73934e-21)
(10.1583 -0.00141294 0)
(10.1604 0.000788372 0)
(10.1565 -0.00255337 1.25635e-20)
(10.1319 -0.00168238 -5.35836e-22)
(10.1355 -0.00321052 -7.51726e-21)
(10.1426 -0.00595232 -4.80846e-21)
(10.1462 -0.00745583 -5.17187e-21)
(10.1497 -0.00936036 -7.5186e-22)
(10.1389 -0.0198082 0)
(10.2597 -0.0109697 -2.96955e-21)
(10.1589 -0.012231 -1.11899e-21)
(10.1552 -0.0102536 -1.64194e-23)
(9.89172 0.000590765 7.66628e-21)
(8.76559 0.00648311 5.64821e-22)
(8.97733 0.0202256 2.60591e-20)
(10.3267 0.0113256 8.99173e-22)
(10.0008 -0.00197603 -5.61879e-20)
(10.0042 -0.00162242 5.62392e-20)
(10.007 -0.00903334 0)
(10.0193 -0.0246189 -2.27608e-20)
(10.0112 -0.024626 8.56203e-20)
(10.0069 -0.017619 7.23048e-20)
(10.1498 -0.00528977 0)
(10.1551 -0.010982 7.01718e-21)
(10.1567 -0.0250658 5.61883e-21)
(10.0258 -0.00782171 -2.87987e-21)
(10.0314 -0.0193446 -1.91037e-20)
(10.0242 -0.0120516 4.80669e-20)
(10.0341 -0.0269459 -6.54008e-21)
(10.0258 -0.0304482 2.77709e-20)
(9.51769 0.0553124 -6.0798e-20)
(10.3523 -0.0333552 -4.64067e-21)
(10.3281 0.00757065 2.73316e-20)
(10.273 -0.00107488 -1.00005e-20)
(10.1691 0.0134003 -1.60614e-22)
(10.1652 0.00724894 1.73154e-21)
(10.1565 0.0225214 -1.28519e-20)
(10.1693 0.0209625 0)
(10.1676 0.018315 0)
(10.164 0.0197423 -1.07863e-21)
(10.1639 0.0102031 0)
(10.1635 0.0149995 0)
(10.1629 0.0135801 -6.40305e-21)
(10.1657 0.0020252 0)
(10.1646 0.00461027 -3.15e-20)
(10.1608 -0.00498933 -7.58996e-20)
(10.1647 -0.00158364 5.13356e-20)
(10.1657 -0.016532 0)
(10.1735 -0.0339561 1.58602e-20)
(10.1346 -0.00158133 7.96773e-21)
(10.1383 -0.0039338 -4.09927e-22)
(10.1454 -0.00665169 -2.00037e-20)
(10.148 -0.00789041 1.12937e-20)
(10.1514 -0.00974622 2.12623e-22)
(10.1569 -0.0104504 -1.62689e-22)
(10.1441 -0.0206609 8.39453e-22)
(10.2491 -0.0144718 1.05053e-21)
(10.161 -0.011726 -4.70878e-22)
(9.93291 -0.0197253 -1.19554e-20)
(8.57836 0.00817521 1.84042e-20)
(10.0004 -0.00286385 -1.16443e-19)
(10.003 -0.00950289 4.95525e-20)
(10.0163 -0.0308119 -2.81086e-20)
(10.0092 -0.0286103 1.95105e-21)
(10.0052 -0.020331 -1.38028e-19)
(10.1443 -0.0173774 -1.26335e-20)
(10.1378 -0.00784251 1.0721e-20)
(10.1448 -0.0341531 0)
(10.184 -0.0562421 -3.0093e-20)
(10.1624 -0.045172 -1.65381e-20)
(10.0401 -0.0164031 1.68824e-22)
(10.0392 -0.0109794 -2.70738e-20)
(10.0414 -0.0308638 -1.92619e-22)
(10.0335 -0.0353868 -6.32027e-21)
(10.0237 -0.0376754 -2.92125e-20)
(8.65195 0.0442588 -4.51024e-20)
(9.83376 0.103513 1.30207e-20)
(10.3641 0.0415987 -1.31259e-20)
(10.3117 0.0226639 1.22244e-21)
(10.1779 0.0168074 4.54632e-21)
(10.1679 0.0100135 2.79835e-21)
(10.1714 0.00907382 9.22728e-21)
(10.1591 0.0225866 -2.47762e-21)
(10.17 0.0231609 2.72945e-21)
(10.1702 0.0206227 0)
(10.1676 0.0223353 -8.91636e-21)
(10.1674 0.0134659 -1.03079e-20)
(10.1678 0.0161204 0)
(10.1736 0.00194217 -2.2279e-20)
(10.1722 0.00572721 -1.11207e-20)
(10.1733 -0.00329988 4.90819e-20)
(10.1709 -0.00946122 -1.83097e-20)
(10.1811 -0.0231529 -1.12576e-20)
(10.1951 -0.0411641 4.7344e-20)
(10.1379 -0.00203341 -4.81055e-21)
(10.1416 -0.00475117 8.92604e-21)
(10.1632 -0.0128344 2.2194e-21)
(10.1506 -0.00864126 6.59818e-21)
(10.1495 -0.00850867 0)
(10.153 -0.0103072 1.78047e-21)
(10.1584 -0.0107141 9.90813e-23)
(10.1539 -0.0103363 0)
(10.1536 -0.0178324 -1.8229e-21)
(10.1495 -0.0180283 -1.54247e-21)
(10.2878 -0.00594083 1.34327e-21)
(10.0371 -0.0552418 3.25385e-20)
(10.0008 0.00226679 -1.47028e-20)
(10.0003 -0.00385943 0)
(10.0021 -0.0120286 3.14978e-20)
(10.0142 -0.0363931 -7.01704e-21)
(10.0068 -0.0331612 0)
(10.0036 -0.0233638 1.04925e-20)
(10.2207 -0.0691123 -5.37968e-20)
(10.1206 -0.01053 -9.78818e-23)
(10.1008 -0.0129383 0)
(10.1302 -0.024094 -4.83297e-21)
(10.1345 -0.0432711 -1.22995e-21)
(10.0575 -0.0100883 0)
(10.0784 -0.00945844 0)
(10.1675 -0.0701429 1.45751e-20)
(10.148 -0.055215 -1.34555e-22)
(10.051 -0.0260781 1.04516e-19)
(10.0432 -0.0389012 4.99364e-20)
(10.0332 -0.0448672 1.27553e-20)
(10.0211 -0.0446461 0)
(8.45731 -0.0019954 3.55672e-20)
(9.41742 0.108927 0)
(10.2835 0.0579749 9.74229e-22)
(10.3183 0.0251724 -1.23567e-21)
(10.1959 0.0180913 6.12736e-21)
(10.1722 0.0124948 1.18997e-20)
(10.177 0.010229 0)
(10.1604 0.0240919 3.77249e-21)
(10.1718 0.02542 -7.99838e-22)
(10.1732 0.0234646 -3.46188e-21)
(10.1721 0.0251102 -1.67895e-21)
(10.1729 0.0168211 2.00861e-22)
(10.1839 0.0015313 -1.28863e-20)
(10.1807 0.00643218 1.44542e-20)
(10.1855 -0.00516111 1.34022e-20)
(10.1849 -0.0134605 -1.21552e-20)
(10.201 -0.0269633 -4.74032e-20)
(10.228 -0.0455919 3.37461e-24)
(10.1416 -0.00257235 -2.67529e-21)
(10.151 -0.00717119 -2.9485e-20)
(10.1464 -0.00598596 1.85091e-20)
(10.1726 -0.0183102 -2.09385e-21)
(10.1648 -0.0129141 -6.35037e-22)
(10.1547 -0.0110894 -1.68923e-21)
(10.1566 -0.0118311 0)
(10.1598 -0.0112437 1.3008e-21)
(10.1569 -0.0120218 8.49984e-21)
(10.1589 -0.0128555 0)
(9.66488 -0.0878237 -8.18675e-20)
(9.38431 -0.0906161 1.46977e-20)
(10.1402 -0.00817943 0)
(10.3265 0.00275212 5.27744e-21)
(10.0004 0.00279584 1.43909e-19)
(10.0022 0.00844806 -1.37002e-19)
(10.0046 0.00103963 0)
(10.0003 -0.00456834 -1.95989e-20)
(10.0014 -0.0137746 7.19458e-20)
(10.0115 -0.0425304 5.93773e-21)
(10.0038 -0.0352119 0)
(10.0013 -0.0245278 -1.65674e-19)
(10.2051 -0.0913282 5.3771e-20)
(10.2663 -0.0674215 2.26345e-20)
(10.1189 -0.0326687 -3.54751e-21)
(10.1015 -0.0267221 0)
(10.1186 -0.0514742 4.91422e-21)
(10.0819 -0.0232856 0)
(10.065 -0.0273023 -8.73504e-20)
(10.1471 -0.0803707 1.53441e-20)
(10.1315 -0.0602304 3.82976e-21)
(10.0554 -0.0402301 -2.01089e-20)
(10.0446 -0.051859 -1.17357e-20)
(10.0301 -0.0533108 4.04711e-20)
(10.0165 -0.0520281 -3.83677e-20)
(8.1608 -0.0232068 5.03909e-21)
(9.11398 0.0768954 3.35606e-21)
(9.05082 -0.067801 6.74101e-21)
(10.2356 0.0382487 -2.24851e-21)
(10.3408 0.0272771 2.04087e-21)
(10.2081 0.0225438 -2.33682e-21)
(10.1787 0.016482 0)
(10.1848 0.0145582 -1.92883e-20)
(10.1621 0.0273224 -4.46655e-21)
(10.1735 0.0282438 7.47167e-21)
(10.1779 0.026633 1.4826e-21)
(10.1772 0.0273266 1.09661e-20)
(10.1908 0.0106005 1.92819e-20)
(10.1963 0.00463823 0)
(10.2005 -0.00371309 0)
(10.2024 -0.0143338 0)
(10.2291 -0.0241535 0)
(10.2668 -0.0398483 -4.67431e-20)
(10.3058 -0.0634216 -7.31582e-20)
(10.1458 -0.00304213 2.67516e-21)
(10.1519 -0.00551646 8.24942e-21)
(10.1666 -0.0137627 2.29576e-21)
(10.1658 -0.013944 1.74796e-22)
(10.1612 -0.0122736 -1.56242e-21)
(10.1627 -0.013523 -1.82148e-21)
(10.165 -0.0149073 0)
(10.1587 -0.0117136 0)
(10.1617 -0.0138001 0)
(10.1705 -0.00448146 0)
(10.3663 -0.0137619 4.00111e-20)
(10.2982 -0.0295307 -3.0433e-20)
(10.0006 0.00484462 3.59084e-20)
(10.0023 0.0108676 -2.8046e-20)
(10.0049 0.0140297 -6.97928e-20)
(10.0137 0.00793711 0)
(10.0073 0.0109486 0)
(9.99992 -0.00489727 5.48437e-21)
(10.0009 -0.015398 4.30888e-20)
(10.0078 -0.0459584 -1.27225e-21)
(10.0001 -0.039632 -2.96748e-20)
(9.9994 -0.0301306 2.6845e-19)
(10.1824 -0.107192 1.4613e-22)
(10.2518 -0.0954578 4.56004e-20)
(10.3319 -0.104506 -7.1855e-20)
(10.0714 -0.0447501 -6.5538e-20)
(10.1023 -0.0508466 2.08014e-20)
(10.0892 -0.0406312 3.00011e-20)
(10.125 -0.0862473 0)
(10.1146 -0.0631406 -1.98902e-21)
(10.0586 -0.0588283 -1.62022e-20)
(10.0414 -0.0623457 -4.45293e-20)
(10.0231 -0.0623726 2.25444e-20)
(10.0111 -0.0568717 -1.42438e-20)
(10.3285 -0.0677995 0)
(8.03797 -0.0145053 -4.72573e-21)
(8.96722 0.059359 2.24376e-21)
(8.85641 -0.0373053 -5.12708e-21)
(10.2084 0.0304268 7.02235e-22)
(10.3521 0.0290931 -6.64073e-22)
(10.2155 0.0307911 0)
(10.1841 0.0284722 0)
(10.1922 0.0277736 1.98104e-20)
(10.1773 0.0321412 0)
(10.1638 0.0352913 -7.27434e-23)
(10.1836 0.0299154 -1.43938e-21)
(10.201 0.0245148 -1.97988e-20)
(10.2101 0.0182396 0)
(10.2187 0.00815578 0)
(10.2256 -0.005934 0)
(10.2611 -0.0151313 0)
(10.2944 -0.0339395 3.65583e-20)
(10.3373 -0.0485501 2.13693e-19)
(10.3657 -0.0676023 1.72e-20)
(10.1492 -0.00212423 0)
(10.1557 -0.00581067 -8.35092e-21)
(10.1675 -0.0131824 0)
(10.1667 -0.0146833 5.86712e-21)
(10.1676 -0.0170145 -1.5352e-20)
(10.1681 -0.0192317 4.69732e-21)
(10.1679 -0.0166751 -1.60865e-20)
(10.1627 -0.0123167 2.59785e-21)
(10.1643 -0.0135492 0)
(10.167 -0.0177191 2.375e-20)
(10.1792 -0.0113401 0)
(10.2687 0.0176559 1.66359e-20)
(10.0006 0.0060293 -6.63618e-20)
(10.024 0.00792239 2.01954e-20)
(10.0034 0.0164472 0)
(10.0063 0.0204351 -1.20001e-21)
(10.0114 0.0147328 5.68455e-20)
(9.99982 -0.0045456 0)
(9.99905 -0.0147282 -4.79589e-20)
(10.0024 -0.0501857 3.29921e-20)
(9.99526 -0.038861 0)
(9.99592 -0.0297376 0)
(9.99821 -0.0211515 -1.81977e-21)
(10.1556 -0.117108 -2.4092e-21)
(10.3757 -0.1433 1.00532e-19)
(10.2208 -0.121576 -2.29472e-21)
(10.2941 -0.13221 -7.36824e-20)
(10.105 -0.0877127 5.44141e-20)
(10.0758 -0.0604851 0)
(10.0949 -0.0660476 -2.46044e-20)
(10.0558 -0.0714852 0)
(10.0311 -0.0740572 4.99541e-21)
(10.0152 -0.0694484 4.30479e-20)
(10.0038 -0.0620503 -1.71758e-20)
(10.2778 -0.0441635 0)
(7.97167 -0.0143217 2.79946e-21)
(8.87342 0.0583213 -3.64035e-21)
(8.77241 -0.0338373 -7.44611e-22)
(10.1706 0.024789 9.09931e-22)
(10.3546 0.0321495 1.3262e-21)
(10.2175 0.04551 5.99092e-22)
(10.2025 0.0342576 2.15753e-20)
(10.1921 0.0326818 -1.04748e-20)
(10.1839 0.0375355 1.2504e-21)
(10.1676 0.0486897 -1.34484e-21)
(10.2142 0.0323666 -2.85322e-20)
(10.2268 0.0271702 1.69519e-20)
(10.2517 0.00459901 0)
(10.2397 0.0185424 0)
(10.2847 -0.00719339 -1.30679e-20)
(10.3523 -0.00680711 7.77427e-20)
(10.3228 -0.0104919 0)
(10.3868 -0.0273261 -2.16574e-19)
(10.4095 -0.0981858 -1.3893e-19)
(10.1534 -0.0019907 4.58366e-21)
(10.1592 -0.00539346 -2.48193e-21)
(10.1663 -0.0119333 1.79082e-20)
(10.1676 -0.0190283 4.06889e-21)
(10.1709 -0.0178562 1.33309e-20)
(10.1709 -0.0223898 -1.93849e-21)
(10.1721 -0.0177086 3.79815e-22)
(10.1683 -0.0143509 -2.2001e-21)
(10.1694 -0.0195295 8.64007e-21)
(10.1625 -0.0250436 0)
(10.243 -0.0113605 -2.50957e-22)
(10.0002 0.00576097 -4.06274e-20)
(10.0016 0.0153463 8.28465e-20)
(10.0388 0.00743846 -2.92968e-20)
(10.0282 0.0195757 -5.33437e-20)
(10.0054 0.0232415 3.26879e-20)
(10.0107 0.0237563 -2.45227e-20)
(10.0205 0.021642 5.21265e-20)
(9.99812 -0.0115157 0)
(9.99964 -0.00369915 0)
(9.99562 -0.0495862 -1.67869e-20)
(9.99021 -0.0373685 -5.57624e-20)
(9.99263 -0.028545 1.70854e-20)
(9.99557 -0.0198359 1.86164e-21)
(10.1294 -0.120858 -1.73406e-20)
(10.4297 -0.194636 -1.73251e-19)
(10.1871 -0.141312 -4.57838e-21)
(10.3358 -0.183464 2.64211e-20)
(10.2546 -0.170499 3.00073e-20)
(10.0896 -0.0917744 -4.40367e-20)
(10.0717 -0.0773549 -1.3087e-20)
(10.106 -0.120145 2.43633e-20)
(10.0438 -0.0869664 -7.25995e-20)
(10.0215 -0.0847369 0)
(10.0054 -0.076238 -1.34154e-20)
(9.99427 -0.0625233 -3.59166e-21)
(10.3034 -0.045694 5.30765e-22)
(7.93227 -0.0224733 0)
(8.78226 0.0615699 1.09859e-21)
(8.69505 -0.0299748 0)
(10.1348 0.0194125 -1.38022e-21)
(10.3541 0.0365223 -6.07583e-22)
(10.2088 0.0612119 1.07277e-22)
(10.2077 0.049885 0)
(10.1941 0.0439222 8.86854e-22)
(10.1761 0.061018 1.56084e-20)
(10.2255 0.043958 0)
(10.2399 0.0380281 3.35875e-20)
(10.2713 0.013314 -4.37225e-21)
(10.256 0.0289796 -3.86646e-20)
(10.3098 0.00232027 -2.53066e-21)
(10.3587 0.0308338 9.62056e-20)
(10.3963 0.00754408 -4.42916e-20)
(10.4345 -0.0478846 1.61715e-19)
(10.4674 -0.138503 3.97952e-20)
(10.157 -0.00187153 0)
(10.1639 -0.00511581 0)
(10.1708 -0.0110222 -2.43165e-20)
(10.1725 -0.0147179 6.48396e-22)
(10.1684 -0.0231223 -9.37718e-21)
(10.1722 -0.0205543 0)
(10.1739 -0.0264459 -2.40572e-21)
(10.1747 -0.0191561 -3.81613e-21)
(10.1736 -0.0203872 3.5196e-21)
(10.169 -0.0270899 4.29864e-21)
(10.2608 -0.0136604 1.01437e-22)
(10.0001 0.00434247 3.33696e-20)
(10.0004 0.0131239 8.37284e-20)
(10.0018 0.0206623 -1.22439e-19)
(10.0037 0.0245463 -4.4401e-20)
(10.057 0.00733671 0)
(10.0413 0.0194805 3.41626e-20)
(10.0335 0.030187 -4.12021e-20)
(10.0089 0.0290997 -1.43164e-20)
(10.0168 0.0302423 0)
(10.0272 0.0310994 -8.76679e-20)
(10.0774 0.00695245 -4.24812e-21)
(9.99704 -0.00801775 5.01688e-20)
(9.99954 -0.00228629 0)
(9.99985 0.00370285 0)
(9.98793 -0.0473223 -2.07494e-20)
(9.98541 -0.0315888 4.39625e-20)
(9.99237 -0.015422 -5.40675e-20)
(9.98822 -0.0235143 0)
(10.1493 -0.155347 -2.78619e-22)
(10.3836 -0.243808 1.49854e-20)
(10.2114 -0.194255 5.89905e-21)
(10.2897 -0.220186 3.10476e-22)
(10.0817 -0.115745 3.31755e-20)
(10.0606 -0.0989316 5.99561e-20)
(10.1122 -0.160305 0)
(9.98325 -0.060244 4.40721e-20)
(10.0332 -0.103702 -7.78763e-22)
(10.0094 -0.0952431 0)
(9.99234 -0.0781892 -1.65814e-20)
(10.2869 -0.042161 -9.91756e-23)
(7.90013 -0.0266559 4.37696e-22)
(8.69855 0.0680702 -6.74799e-22)
(8.64884 -0.0269157 -1.28344e-21)
(10.2081 0.0708769 0)
(10.1219 0.00704157 1.06517e-22)
(10.3478 0.0396362 -1.67626e-22)
(10.2062 0.067301 -2.32065e-20)
(10.1901 0.0704542 3.65414e-21)
(10.2487 0.0628208 -7.63149e-21)
(10.2332 0.0613097 2.83381e-20)
(10.2906 0.037375 -5.48187e-20)
(10.3239 0.0460153 -1.00516e-19)
(10.2711 0.0408167 7.15824e-20)
(10.3827 0.0484055 0)
(10.4462 0.00868778 9.69448e-20)
(10.496 -0.0760163 0)
(10.1591 -0.00160687 4.32207e-21)
(10.1714 -0.00411533 4.46499e-20)
(10.1755 -0.00927163 0)
(10.1774 -0.0143946 -3.76981e-22)
(10.1783 -0.0210451 -1.05026e-20)
(10.1698 -0.0293996 0)
(10.1746 -0.0226153 0)
(10.1776 -0.0295743 -3.52668e-22)
(10.1794 -0.0213335 1.01777e-20)
(10.1701 -0.0342294 1.09058e-21)
(10.2637 -0.0191972 -1.0231e-21)
(10.1563 0.000498418 -5.25879e-21)
(10.1517 0.00160344 0)
(9.99937 0.0130884 1.34769e-20)
(9.99925 0.0213934 0)
(10.0029 0.0287726 4.66396e-20)
(10.0068 0.0324834 1.43571e-20)
(10.0576 0.0203722 0)
(10.0442 0.0315116 5.73277e-20)
(10.0346 0.0369021 3.78327e-21)
(10.0144 0.03673 0)
(10.0243 0.0380317 0)
(10.0758 0.0219139 -4.52637e-22)
(10.0983 0.00594292 -4.0901e-21)
(10.1178 0.00349111 0)
(10.1334 0.000152941 4.65625e-20)
(10.1468 0.00504503 -4.6119e-20)
(9.99927 0.000643351 0)
(9.99572 -0.00261343 0)
(9.99966 0.00199746 0)
(9.99823 0.0115386 0)
(9.9716 -0.0514671 -2.15862e-20)
(9.98002 -0.0395286 5.48691e-20)
(9.98184 -0.0249552 0)
(9.98895 -0.00927079 5.35136e-20)
(10.1641 -0.213937 2.06712e-20)
(10.3307 -0.287305 2.31959e-20)
(10.2387 -0.251949 -2.11983e-20)
(10.0514 -0.123415 2.83493e-21)
(10.0774 -0.139385 -6.30521e-22)
(10.0969 -0.191833 1.04669e-20)
(10.1189 -0.229941 -3.66834e-20)
(9.96074 -0.0655833 0)
(9.97673 -0.076036 -2.64699e-21)
(10.0186 -0.118605 0)
(9.99122 -0.0998412 0)
(10.3062 -0.0435594 0)
(8.60747 0.0737818 -1.72379e-22)
(7.85604 -0.0309232 -2.26735e-22)
(8.71539 -0.0394531 -1.01774e-20)
(10.3331 0.0514098 0)
(10.1662 -0.00309684 -4.1586e-21)
(10.2187 0.095695 -3.99118e-21)
(10.2414 0.0727528 -1.39936e-20)
(10.3203 0.0856133 0)
(10.2789 0.0802022 0)
(10.3615 0.0806278 -3.89826e-20)
(10.4432 0.0643122 4.56675e-21)
(10.5129 -0.00724617 2.47409e-20)
(10.1693 0.00087 -5.33601e-20)
(10.1803 -0.00708407 0)
(10.183 -0.0128373 1.4445e-20)
(10.1842 -0.020849 3.78006e-22)
(10.1848 -0.0230854 1.82838e-21)
(10.1726 -0.0367521 -1.15368e-21)
(10.1786 -0.0255395 1.52555e-21)
(10.1826 -0.0324658 0)
(10.2663 -0.0251348 2.92995e-22)
(10.172 -0.0416365 -7.20926e-22)
(10.1568 0.0133446 2.23034e-20)
(10.1669 0.0052283 8.72763e-21)
(10.1612 0.00984541 -2.84217e-21)
(9.99798 0.0212397 1.64184e-20)
(9.99972 0.0292948 -3.19313e-20)
(10.005 0.0372197 -1.61251e-20)
(10.0118 0.0417024 1.36778e-20)
(10.0586 0.0335563 0)
(10.0451 0.0409632 2.21297e-20)
(10.0334 0.0450265 -3.579e-21)
(10.0219 0.0456669 1.1244e-21)
(10.0746 0.0364142 -1.7279e-20)
(10.0962 0.0270845 1.47483e-20)
(10.0917 0.037813 -7.62881e-21)
(10.1582 0.022794 1.35622e-20)
(10.1155 0.0254714 -1.18243e-23)
(10.1475 0.0238613 -1.15718e-21)
(10.1332 0.0238484 4.07041e-21)
(9.99665 0.00852371 0)
(9.99262 0.00362671 0)
(9.99564 0.0196125 6.10828e-20)
(9.98541 0.00243606 -1.07264e-19)
(9.96077 -0.0417347 -5.68202e-20)
(9.97242 -0.0311411 2.55085e-20)
(9.98089 -0.0125358 1.70536e-20)
(9.94677 -0.0509481 0)
(10.1844 -0.276239 0)
(10.2717 -0.324597 1.50449e-20)
(10.0367 -0.15562 -2.35321e-20)
(10.0557 -0.210087 3.15699e-20)
(10.0613 -0.16878 3.07772e-20)
(10.0653 -0.248083 -1.58364e-20)
(10.1285 -0.293539 6.14662e-21)
(9.96895 -0.0962871 -4.44823e-20)
(9.94791 -0.081367 5.29449e-20)
(9.99176 -0.129634 -3.86118e-20)
(10.3892 -0.0544017 2.73542e-21)
(8.51381 0.103513 9.00771e-21)
(7.78545 -0.0326941 -4.77361e-20)
(8.72381 -0.0980932 -5.95275e-21)
(10.3602 0.0608948 1.68198e-20)
(10.2567 0.0168105 -1.83167e-20)
(10.2521 0.108543 4.1977e-20)
(10.2629 0.0819227 -2.3198e-20)
(10.3417 0.118034 1.84084e-19)
(10.4263 0.118268 3.11601e-19)
(10.5174 0.0634019 -2.355e-19)
(10.1814 -0.00176115 0)
(10.1886 -0.00958028 -3.02938e-20)
(10.1911 -0.0191091 -1.08977e-22)
(10.1918 -0.0239264 -1.1845e-20)
(10.1893 -0.0342184 1.18722e-21)
(10.1782 -0.0446746 3.86133e-22)
(10.1845 -0.0294262 5.85155e-22)
(10.2331 -0.0325642 -3.0258e-22)
(10.1693 -0.0499285 0)
(10.1672 0.0145992 0)
(10.1816 0.00471295 0)
(9.99304 0.0283352 1.01954e-19)
(9.99684 0.0297952 -1.68162e-20)
(10.001 0.0385778 4.98587e-20)
(10.0089 0.0477076 0)
(10.0193 0.0526442 -4.35532e-20)
(10.059 0.0454558 -6.47658e-21)
(10.0451 0.0510341 -1.45653e-21)
(10.0316 0.0546909 1.48468e-20)
(10.0744 0.0484699 1.10192e-20)
(10.0909 0.0553906 1.72286e-20)
(10.1066 0.0473745 -6.09823e-21)
(10.1684 0.0239689 5.94992e-21)
(10.1638 0.030793 1.44337e-20)
(10.1218 0.0443108 1.16981e-21)
(10.1538 0.035065 -2.50925e-21)
(10.1395 0.0399786 -1.30608e-20)
(9.99258 0.0164951 5.81412e-20)
(9.98735 0.0117324 7.49424e-20)
(9.98909 0.0248712 -2.21177e-19)
(9.97703 0.000854725 -1.78269e-20)
(9.93091 -0.0667605 1.64561e-20)
(9.95032 -0.0236316 -2.77483e-19)
(9.96442 -0.0122862 8.90452e-20)
(9.9341 -0.02604 0)
(9.98672 0.0317078 4.49145e-20)
(10.2074 -0.353109 -3.24761e-21)
(9.99985 -0.171008 0)
(10.0114 -0.202575 6.7513e-20)
(10.0204 -0.249372 -3.91894e-20)
(10.0698 -0.30368 0)
(10.1383 -0.371492 -4.2395e-21)
(9.94632 -0.162169 -9.44526e-20)
(9.95314 -0.129252 3.23186e-20)
(9.92724 -0.119697 -1.34333e-19)
(10.4167 -0.0956153 7.50941e-21)
(8.32328 0.223344 3.30624e-21)
(7.78361 -0.0421707 2.99273e-19)
(8.31892 -0.228069 -1.70422e-19)
(10.3275 0.149786 -1.76732e-21)
(10.2874 0.143083 -1.60326e-19)
(10.3538 0.148157 8.14999e-20)
(10.3953 0.167502 -1.84399e-19)
(10.5062 0.136362 -7.75493e-21)
(10.1937 -0.0041892 1.59475e-20)
(10.1984 -0.0150163 -3.41114e-23)
(10.2007 -0.0227378 1.69362e-20)
(10.1986 -0.0345236 -1.12459e-21)
(10.185 -0.0540408 -7.51582e-22)
(10.1927 -0.0333162 1.85175e-21)
(10.2111 -0.0519796 1.66374e-22)
(10.1762 -0.0604697 2.00254e-20)
(10.1818 0.0133089 0)
(10.1974 0.00374181 -1.82026e-20)
(9.99125 0.0370839 -3.71863e-20)
(9.9965 0.0391304 -3.33132e-20)
(10.0037 0.0512515 0)
(10.0162 0.0614266 -2.77862e-20)
(10.0295 0.0631348 1.58669e-20)
(10.0593 0.0565633 6.22822e-21)
(10.0439 0.0635526 0)
(10.0759 0.0615504 -3.11104e-21)
(10.0945 0.0631575 -1.73642e-21)
(10.1133 0.0627311 4.44083e-21)
(10.1812 0.0243732 -1.03932e-20)
(10.1751 0.0349708 0)
(10.1314 0.0589187 -5.25756e-22)
(10.1642 0.0447279 -1.05507e-21)
(10.1492 0.0525907 -7.20012e-21)
(9.9791 0.0114768 -3.24781e-20)
(9.98208 0.0238831 0)