/*--------------------------------*- C++ -*----------------------------------*\
  =========                 |
  \\      /  F ield         | OpenFOAM: The Open Source CFD Toolbox
   \\    /   O peration     | Website:  https://openfoam.org
    \\  /    A nd           | Version:  8
     \\/     M anipulation  |
\*---------------------------------------------------------------------------*/
FoamFile
{
    version     2.0;
    format      ascii;
    class       volScalarField;
    location    "8000";
    object      epsilon;
}
// * * * * * * * * * * * * * * * * * * * * * * * * * * * * * * * * * * * * * //

dimensions      [0 2 -3 0 0 0 0];

internalField   nonuniform List<scalar> 
4109
(
0.117468
0.131144
0.120867
0.129884
0.135541
0.131509
0.136725
0.120775
0.145299
0.145123
0.143158
0.147259
0.120016
0.1347
0.139663
0.150927
0.151602
0.150014
0.151986
0.14115
0.121785
0.130575
0.131762
0.158831
0.160146
0.165315
0.120039
0.133826
0.118558
0.160476
0.149185
0.143121
0.132609
0.131279
0.137936
0.163076
0.164098
0.176558
0.137237
0.119722
0.134458
0.137067
0.122419
0.166563
0.154522
0.552377
0.250709
0.148882
0.143816
0.132456
0.138995
0.170777
0.178451
0.192212
0.150432
0.137697
0.117444
0.135028
0.139375
0.147611
0.144066
0.676762
0.177315
0.163067
0.157181
0.214514
0.552376
0.151029
0.143465
0.143799
0.207831
0.184805
0.236317
0.227419
0.224585
0.155883
0.155575
0.143985
0.134868
0.144295
0.140623
0.14355
0.149293
0.152087
0.182478
0.249385
0.590832
0.800487
0.810431
0.188968
0.184677
0.169517
0.163121
0.157874
0.189041
0.422809
0.151273
0.144028
0.237085
0.220717
0.209839
0.242332
0.248356
0.245916
0.251896
0.165716
0.161258
0.15543
0.141135
0.154475
0.207957
0.147207
0.151786
0.154743
0.161339
0.819497
0.302863
0.401537
0.56662
0.895564
0.847039
0.251415
0.206332
0.194386
0.17885
0.172038
0.165672
0.157374
0.429666
0.162604
0.15482
0.241512
0.227104
0.260361
0.251883
0.27434
0.256568
0.172097
0.169838
0.169681
0.155077
0.160973
0.211043
0.152184
0.157548
0.162779
0.166805
0.798277
0.474363
0.91616
0.599129
0.925818
0.284638
0.214462
0.20367
0.186773
0.17915
0.172491
0.166187
0.159653
0.415398
0.14945
0.235695
0.221824
0.269644
0.248224
0.279166
0.283649
0.300085
0.182715
0.178208
0.176968
0.163939
0.169642
0.226693
0.159222
0.165603
0.16892
0.176769
0.556328
0.972221
0.579946
1.00925
0.984663
0.313296
0.197387
0.207055
0.188715
0.172229
0.180788
0.17054
0.473877
0.155963
0.219138
0.230588
0.263616
0.24429
0.278158
0.297222
0.296313
0.338056
0.190363
0.188164
0.189464
0.177754
0.171334
0.228516
0.165789
0.171663
0.177974
0.18381
0.602773
1.05372
1.07896
0.666285
1.09666
0.310772
0.198463
0.210152
0.184847
0.178416
0.496617
0.168717
0.221466
0.234392
0.257909
0.247681
0.273648
0.29623
0.311801
0.335234
0.375038
0.202441
0.196971
0.196611
0.189101
0.178955
0.241342
0.179825
0.17246
0.211963
0.185977
0.194914
0.591051
1.15133
0.698373
1.19323
1.19336
0.329098
0.200871
0.208844
0.190326
0.547324
0.171991
0.224059
0.234168
0.26209
0.250339
0.277486
0.289834
0.315064
0.338442
0.362229
0.422392
0.213117
0.205301
0.202633
0.222026
0.181136
0.245364
0.184168
0.225184
0.203815
0.196864
1.24157
0.615527
1.29076
0.766887
1.32875
0.338579
3.64985
0.202894
0.215118
0.577135
0.178899
0.223586
0.237632
0.26306
0.249422
0.279759
0.293522
0.308307
0.33749
0.364643
0.402126
0.412958
0.47906
0.210093
0.219835
0.203515
0.234338
0.236736
0.186849
0.25521
0.199698
0.216297
0.207086
0.639376
1.36608
1.41535
0.770304
1.44491
0.353685
4.40738
3.87582
4.60697
3.18424
3.9592
2.78974
0.751812
0.187755
0.231893
0.23845
0.254165
0.252566
0.267561
0.280591
0.294009
0.311392
0.42399
0.327688
0.361238
0.397176
0.478459
0.541667
0.510046
0.617858
0.231727
0.225024
0.247545
0.251647
0.227121
0.199408
0.27179
0.207346
0.219421
0.699116
1.52042
1.50328
0.357062
9.80429
7.17486
4.72242
3.39321
4.36372
5.47821
0.724371
0.718617
0.810411
3.02079
2.61985
2.79068
2.54537
2.91514
1.38714
0.219227
0.305988
0.287328
0.273939
0.464694
0.284907
0.295613
0.311873
0.330418
0.42252
0.349641
0.387942
0.533201
0.479672
0.58986
0.576224
0.721148
0.806613
0.248663
0.251308
0.265023
0.264859
0.241316
0.231316
0.209936
0.269352
0.223009
0.789583
1.81161
10.1273
7.33936
3.60962
4.35717
5.52844
0.787731
0.840137
0.920336
0.843768
0.898342
2.13266
2.32175
2.24651
2.52334
2.99091
2.06875
1.18201
0.318474
0.328541
0.292149
0.454859
0.47188
0.310683
0.308342
0.329141
0.351503
0.414618
0.373177
0.542322
0.509188
0.595643
0.647278
0.729696
0.766512
0.276542
0.265319
0.232793
0.293498
0.281783
0.254491
0.245423
0.319437
0.236784
0.224544
0.330632
0.867964
9.84249
11.2001
7.49129
3.58597
4.45296
5.70717
0.830641
1.00247
1.18956
0.939052
1.02763
1.82948
1.47207
0.933202
1.00112
1.9927
2.18588
2.5446
2.95255
2.48316
2.13107
0.605219
0.345413
0.325284
0.44396
0.473825
0.325193
0.328341
0.349737
0.374207
0.400022
0.553597
0.513289
0.605108
0.660802
0.698565
0.758244
0.302253
0.319378
0.295075
0.248684
0.249057
0.270971
0.286961
0.259836
0.334763
0.307203
1.72594
2.49488
0.241296
0.235143
10.2517
7.29755
7.04484
11.4057
7.76151
3.63366
4.54875
5.91913
0.912761
0.805852
1.07055
1.20277
1.13502
1.4044
1.66362
1.0369
1.12286
1.90799
2.14635
2.52699
3.06518
3.27089
3.08741
3.87739
0.641551
0.409802
0.34828
0.429296
0.462463
0.350677
0.346672
0.370388
0.400717
0.498965
0.540404
0.586574
0.63925
0.693383
0.739234
0.773232
0.33738
0.335561
0.262452
0.261986
0.276742
0.293221
0.312759
0.358075
0.327079
0.264369
0.361012
0.458461
10.664
7.53975
6.47381
4.31497
4.3917
11.5843
7.60072
3.71551
4.14697
4.95762
1.00671
0.876719
0.838714
1.61549
1.25986
1.35025
1.15896
1.24828
1.86929
2.11717
2.63669
3.13222
0.944685
3.8778
3.92216
4.47719
0.854059
0.455408
0.38679
0.429775
0.462374
0.371143
0.373322
0.398424
0.498412
0.539005
0.584337
0.635693
0.680297
0.713927
0.770654
0.782891
0.376176
0.37787
0.283054
0.282784
0.298944
0.315767
0.331772
0.385257
0.349436
0.332945
0.283582
0.302707
10.4477
3.29171
6.16611
5.39711
4.35535
11.7404
7.70914
3.51002
4.33029
5.22201
6.51452
1.11569
0.862336
0.976294
0.867314
1.29764
1.56127
1.41971
1.87386
2.27455
2.71537
2.99761
0.994341
4.63641
4.81286
5.59026
0.963858
0.532635
0.421883
0.46009
0.42606
0.396681
0.401697
0.49467
0.535264
0.627015
0.578132
0.667738
0.709719
0.711793
0.759965
0.823952
0.421507
0.407905
0.417834
0.304296
0.303464
0.33032
0.34941
0.372163
0.364652
0.306071
0.349497
10.9353
7.30173
2.47821
2.7169
4.9653
4.35675
3.59392
8.10778
11.6782
3.65402
4.28726
5.04612
6.20935
1.23862
0.892837
1.06792
0.919246
0.979826
1.46353
1.57339
1.37164
1.94505
2.32959
2.63831
3.13335
1.47389
5.55466
5.89881
6.51458
1.20707
0.610481
0.444691
0.463032
0.429008
0.429591
0.502863
0.534682
0.617392
0.580799
0.681159
0.711792
0.749129
0.798986
0.857109
0.474619
0.456775
0.45167
0.400132
0.330298
0.332456
0.351184
0.365319
0.381387
0.330775
0.412406
11.7556
8.623
6.4432
5.50839
1.92308
2.16862
2.59469
4.1624
3.56008
3.08902
1.56117
8.09184
11.4655
11.6747
3.6375
4.28798
5.73851
5.04662
1.19567
0.943883
1.04419
0.973716
1.51542
1.70893
1.33248
3.13816
2.00076
2.24162
2.7031
1.59791
6.75789
7.27361
8.13374
0.473431
1.4472
0.63113
0.466627
0.466593
0.553997
0.531776
0.63635
0.64375
0.598481
0.691274
0.752918
0.811264
0.537123
0.500035
0.485586
0.428653
0.414886
0.351333
0.347284
0.371955
0.394283
0.355382
0.440623
0.617021
0.702066
8.36457
6.67936
5.12869
4.42389
1.77569
2.19127
2.62916
3.42764
2.94203
1.4646
1.24731
1.07337
0.86072
0.799973
10.8309
7.80641
10.8555
8.13343
3.16462
3.67723
4.21667
5.60405
1.17295
0.996242
1.0563
1.72703
1.52246
1.33607
1.26962
2.69359
2.68788
1.97713
2.33248
1.95456
9.22538
8.3762
9.37187
0.665826
1.5571
0.501353
0.557608
0.639125
0.583225
0.686671
0.732799
0.786202
0.541475
0.520549
0.46288
0.440208
0.418149
0.380345
0.375292
0.39912
0.513453
0.384191
0.741298
0.619381
0.680215
6.409
5.41963
4.19619
3.58392
1.79217
2.24733
2.47653
2.82512
1.57428
1.23732
1.30377
0.760503
1.04561
0.825783
0.900504
8.01285
6.67113
6.2525
5.15083
3.00251
3.52707
4.60312
2.63039
1.13366
1.0573
1.64541
1.40684
1.532
1.36024
1.22197
2.36244
2.40651
2.00183
1.80395
11.3057
10.5277
11.3646
1.07709
1.74687
0.552602
0.325171
0.635609
0.700507
0.759612
0.561334
0.498989
0.479265
0.452833
0.426529
0.403018
0.396361
0.462732
0.401858
0.691125
0.616146
5.04643
5.20355
4.42532
3.43665
2.91191
1.92208
2.12035
2.36741
1.64355
1.45871
1.28052
0.768993
0.819099
1.128
0.891278
0.984568
5.79421
5.17641
5.13596
4.29851
2.32756
3.11933
3.40962
2.69069
4.32648
1.1215
1.72947
1.56774
1.47289
1.30098
1.19121
1.80687
1.99252
2.03128
1.84972
15.1853
13.6379
15.6488
3.07283
0.61782
0.901299
0.6814
0.743255
0.54147
0.513413
0.483969
0.459919
0.433654
0.429523
0.471747
0.437825
0.676729
0.587682
4.25038
4.32604
3.54113
2.79965
2.41798
1.82953
2.01411
1.58802
1.39072
1.23524
0.73914
0.801274
1.10345
0.887542
0.980629
4.27265
4.13339
3.34532
1.89333
2.0972
2.38375
2.6044
3.55148
1.50034
1.37258
1.25155
1.64509
1.58003
1.79791
2.64456
20.8836
27.3962
9.45196
0.67789
1.11703
0.739187
0.560257
0.525762
0.4952
0.46285
0.458289
0.506337
0.641492
0.605448
3.51507
3.45936
2.81686
2.32353
2.05179
1.73467
1.51063
1.32712
1.17599
0.701314
0.770843
1.04884
0.849662
0.941949
3.40615
3.40176
2.78919
1.95536
2.1278
2.30828
1.81823
2.82758
1.41158
1.30882
1.50971
1.54038
1.67697
4.70901
46.1654
45.4985
21.3367
0.754547
2.343
0.566036
0.536535
0.494039
0.502083
0.618566
0.663219
0.617523
2.83005
2.81309
2.33797
1.98757
1.76636
1.53933
1.35298
1.20186
0.722681
0.795328
1.07356
0.873576
0.967578
2.78428
2.77103
2.32925
1.85494
1.98324
1.68678
2.347
1.35724
1.43021
1.45601
1.52722
1314.57
10.0959
77.9443
81.0473
51.3511
1482.13
0.57955
0.541244
0.556469
0.553666
0.848715
0.669739
0.63024
2.30199
2.32658
1.99986
1.72339
1.50583
1.33252
1.18733
0.734069
0.800822
1.07025
0.880699
0.966507
2.21336
2.23581
1.98269
1.68309
1.53066
1.95586
2.00959
1105.67
1207.64
23.4059
139.905
140.026
1582.05
1368.79
1951.54
0.594757
0.541555
0.613939
0.610647
1.41815
0.685711
0.625129
2.01128
2.00478
1.7267
1.50891
1.33495
1.1959
0.749651
0.819722
1.08029
0.982876
0.896164
1.97308
1.75619
1.5274
1.74006
1.81119
1.77997
765.292
976.08
1147.96
53.4549
1532.86
1304.28
1833.56
1961.78
0.621454
0.617016
0.683095
3.05335
0.69939
0.634823
1.67086
1.68281
1.48697
1.32162
1.19071
0.750479
0.832169
1.08565
0.991897
0.909468
1.76057
1.57274
1.623
1.65276
1.63803
1.61587
713.722
612
896.932
1138.69
1897.34
1679.28
1524.19
1292.53
1911.23
1981.06
0.660359
0.6812
0.756251
0.681861
0.700275
0.74003
1.54804
1.37306
1.2523
1.13419
0.810669
0.822033
1.06372
0.964322
0.918441
1.57055
1.5248
1.52905
1.50798
1.48163
557.973
507.648
864.064
1195.13
2190.97
1964.87
1473.6
1725.43
1572.5
1349.31
2039.09
2022.57
0.69595
0.723851
0.739428
0.761953
0.822639
1.45043
1.33284
1.23495
1.13748
0.853104
0.878208
1.06159
0.990501
0.932851
1.42033
1.38876
1.34338
2455.83
445.476
441.075
884.178
1369.67
2212.72
2138.05
1260.18
1496.08
1817.2
1713.72
1528.05
2269.03
2098.62
0.726047
0.752582
0.787698
0.820104
1.3213
1.27177
1.20442
1.1331
0.866003
0.909161
1.06607
1.00829
0.95381
2922.56
2425.68
366.545
407.079
990.159
1881.79
2276.93
2426.24
1155.77
1260.4
1550.03
1968.57
2040.64
2051.51
2678.17
2236.95
3281.73
3048.03
2400.4
314.244
408.413
1333.66
4454.55
2421.05
2930.15
989.047
1163.31
1290.32
1654.61
2223.56
2896.03
4638.18
3463.25
2480.21
3394.85
3675.87
3102.01
2415.92
292.615
487.513
3078.74
2703.19
3777.03
876.862
999.86
1193.15
1365.59
1844.81
2686.56
6776.28
5315.27
3453.21
3907.26
4096.25
3120.54
2526.84
321.69
958.91
3284.34
5364.3
596.87
869.549
1048.51
1261.84
1514.63
2208.02
3717.89
12568.4
2795.84
3916.04
4585.04
4517.46
3182.69
2828.7
573.139
4693.79
129.288
537.02
868.472
1148.86
1397.4
1807.64
3042.51
7543.53
3063.33
3311.08
4523.42
5459.52
4926.43
3412.79
3637.02
10114.3
83.719
121.441
493.352
873.6
1332.46
1665.91
2486.63
6174.24
2418.35
3583.38
4063.22
5417.29
6598.58
5399.42
4131.89
6822.98
91.1742
88.1429
117.576
463.001
887.894
1679.27
2289.49
4977.89
1335.6
2821.18
4207.53
5299.65
6782.26
8039.41
6296.97
7096.7
97.2211
99.1878
95.7617
118.784
447.05
922.921
2459.71
4556.3
1075.07
1555.23
3309.31
4970.94
7619.02
8912.12
9722.7
9536.8
97.6941
105.687
110.74
107.942
128.806
449.79
1032.73
5230.45
931.12
1168.08
1777.29
3984.11
5943.62
13014.6
12202.8
11296.1
92.358
106.141
117.89
127.701
127.759
160.319
520.482
1298.8
947.361
1045.55
1275.11
2046.75
4978.99
7506.27
28327.8
10826.3
85.3091
100.281
118.328
135.868
154.167
163.412
249.58
1060.32
1075.13
1058.24
1172.34
1422.37
2424.9
6671.09
10984.6
78209.9
128.445
89.7415
111.807
136.296
164.023
200.823
246.349
662.64
1322.72
1177.59
1182.93
1335
1654.78
3036.33
12537.7
14123.1
577.329
121.149
97.4212
128.797
164.456
213.957
307.817
600.101
2509.27
1512.99
1295.38
1344.65
1575.92
2076.19
4243.41
65623
901.614
523.273
117.717
109.704
155.395
214.42
328.768
763.865
2907.31
2989.38
1681.34
1456.08
1585.51
1989.45
3005.7
8009.04
1000.66
888.291
481.802
119.34
129.7
202.384
329.371
817.12
2632.15
3323.69
3700.36
1848.57
1706.98
2000.82
2870.13
6045.59
1174.19
1015.59
885.504
451.998
129.953
165.667
310.212
817.219
3161.95
3013.41
3837.57
4947.52
2038.55
2152.03
2889.19
5717.6
1268.79
1185.43
1069.44
890.668
436.169
162.006
249.037
767.056
3264.25
3428.77
3458.04
4524.76
7431.39
2348.94
3115.63
5793.98
1486.12
1271.46
1220.41
1176
905.854
438.927
251.589
601.831
3229
3710.16
3700.18
4000.62
5541.59
12822.6
3462.31
6261.83
1705.79
1513.67
1305.29
1295.59
1367.8
943.878
509.519
662.102
2903.08
3604.07
4290.97
4069.93
4734.11
7219.8
25689.4
8596.31
2081.57
1891.06
1763.57
1573.73
1385.72
1439.88
1727.53
1057.47
1048.01
2436.59
3024.4
4007.64
5023.68
4578.06
5879.6
10096.3
65665.4
1696.89
2082.99
1987.29
1868.46
1684.68
1541.9
1722.43
2538.8
1341.19
2175.39
2406.42
3076.54
4416.67
6031.32
5406.15
8045.92
13146.6
1848.83
1532.23
1655.65
2103.79
2130.38
2033.02
1882.51
1847.67
2376.57
5421.33
2184.96
2379.97
3094.53
4823.87
7409.94
7322.23
14246.3
1912.58
767.223
1437.52
1435.14
1656.11
2149.79
2380.01
2303.15
2257.84
2553.11
4759.97
851.646
1214.12
2240.42
2393.09
3160.77
5311.84
9194.7
9403.34
2070.63
600.946
1323.24
1380.78
1716.7
2234.11
2818.25
2787.33
3117.15
5150.35
678.478
1084.29
2377.6
2500.35
3395.01
6243.12
11438.5
2343.96
480.537
1260.89
1379.08
1878.46
2385.31
3654.32
3857.01
6354.16
563.578
1004.03
2651.79
2796.94
4114.59
9527.21
2826.61
395.893
1254.46
1449.52
2242.96
2651.41
5631.93
7835.1
489.645
972.588
3217.31
3592.3
7031.96
3658.31
339.245
1321.35
1653.56
3194.94
13421.6
450.606
999.531
4587.24
6729.14
5225.83
314.822
1521.36
2238.18
7538.36
448.615
1121.89
9843.87
343.436
2101.4
5136.67
527.318
1509.31
610.747
4999.75
1009.02
3464.57
0.906036
0.866224
0.890945
0.890839
0.920125
0.916332
0.929833
0.929221
0.947147
0.833829
0.854741
0.862945
0.886693
0.893346
0.916562
0.926062
1.00139
1.02548
1.04919
1.08567
1.11304
0.946259
0.958974
0.945225
0.946326
0.954563
0.949077
0.973685
0.96599
0.992035
1.15622
1.17652
0.806152
0.828097
0.839604
0.861512
0.873029
0.892851
0.909473
0.92928
0.945687
0.96401
0.983334
1.00305
1.03238
1.05977
1.10874
1.13649
1.22568
1.24043
0.976863
0.991818
1.01139
1.02747
1.05184
1.07374
1.11443
0.972261
0.976754
0.974679
0.973639
0.992952
0.98121
1.02188
1.00876
1.04181
1.11407
1.14391
1.31067
1.33645
1.22357
1.21778
1.29924
0.786532
0.805909
0.822435
0.841346
0.858969
0.877604
0.897742
0.91531
0.943133
0.963749
0.988797
1.00988
1.0765
1.10046
1.14624
1.17207
1.24358
1.26828
1.34944
1.38608
1.47979
1.49368
1.62726
0.999361
1.00867
1.02781
1.04395
1.06906
0.99795
0.999803
1.00857
1.00126
1.03385
1.01939
1.09376
1.06965
1.05299
1.07844
1.13792
1.14188
1.22515
1.25103
1.57204
1.36584
1.48717
1.31664
1.36248
0.775562
0.793404
0.813503
0.832534
0.85351
0.871552
0.894033
0.914406
0.935684
0.960842
0.991126
1.03234
1.16115
1.10194
1.22113
1.2734
1.34316
1.36478
1.45039
1.67582
1.72283
1.74155
2.01117
2.04328
1.94645
2.09055
2.09326
2.81264
1.02165
1.03131
1.04779
1.06374
1.14623
1.118
1.02625
1.02336
1.04387
1.03342
1.09658
1.07437
1.05995
1.19813
1.16828
1.08894
1.1283
1.15945
3.64473
3.07044
5.67688
1.23223
1.23543
1.32374
1.35509
1.61027
1.64105
2.30705
1.93655
1.55244
1.61922
0.781369
0.795376
0.820569
0.836534
0.863049
0.87969
0.909048
0.929017
0.991568
0.968624
1.04763
1.07478
1.17039
1.18739
1.36951
1.36516
1.54619
1.55842
1.7326
1.76367
1.94608
22.5905
21.1834
12.4883
2.00975
2.23299
2.40837
2.67676
2.95195
3.10146
3.09197
11.6136
4.93023
1049.74
1328.3
1243.74
1827.55
1541.21
1656.03
1768.18
1836.9
1.04704
1.04919
1.07232
1.08641
1.14232
1.11815
1.05712
1.05061
1.10025
1.08145
1.07019
1.252
1.21984
1.18996
1.16376
1.10701
1.1542
1.25103
1.18764
1.24213
895.039
629.084
109.687
57.4436
25.0139
2.45863
4.12708
5.43069
14.8898
1.36669
1.37231
1.38185
1.37263
1.59664
1.62965
1.77321
1.7071
2.28753
961.224
1258.32
1472.87
1399.36
1619.76
1764.64
1798.45
1857.45
1809.32
1760.55
0.872344
0.838189
0.902855
0.891147
0.949222
0.94145
0.999851
0.995717
1.05296
1.05081
1.12039
1.11922
1.23827
1.26898
1.31984
1.33712
1.16777
1.45717
1.26996
1.32052
2.81101
2.80724
3.38579
3.81213
3.72508
58.3817
94.1765
300.507
182.523
56.3459
39.1285
6.34509
8.39554
12.1447
11.4455
36.1065
16.763
14.8189
390.114
930.591
614.524
675.506
956.05
1183.42
1309.91
1303.28
1608.57
1596.76
1606.15
1519.23
1824.11
1883.8
1917.93
1741.69
1891.12
1811.82
1.07565
1.07596
1.097
1.11302
1.14477
1.12134
1.10973
1.09199
1.0817
1.30377
1.26924
1.23593
1.20897
1.18381
1.1606
1.12805
1.17412
1.18101
1.24312
1.24826
1.31028
1.24024
185.247
492.091
331.534
848.263
525.161
92.2461
198.246
70.575
23.6623
1.37346
17.4355
3.04729
6.28909
4.36595
1.55403
1.4848
1.66801
1.56239
1.70481
1.69294
1.93698
1.79982
3.06251
949.732
1332.32
846.881
1460.92
1650.78
1261.03
1490.15
1772.07
1777.16
1795.22
1616.05
1797.44
5.17006
1.16066
103.692
29.1482
2.42399
1.1876
1.78971
1.13826
1.48462
1.09179
1.32574
1.29396
1.24842
1.40613
1.37204
1.611
2.29433
1.45014
2.74448
4.13624
4.2572
7.77589
22.2806
8.64383
9.28752
39.2811
42.6561
14.8743
13.5941
19.0654
19.9635
26.674
28.3023
122.069
185.483
344.692
238.056
132.74
83.7164
49.3123
54.2069
99.0831
66.7088
72.9871
608.486
480.451
648.897
963.358
854.318
1267.4
1172.3
1578.58
1415.62
1475.66
1678.84
1847.6
1773.75
1672.73
1856.59
1938.33
1945.47
1.13369
1.10419
1.102
1.12192
1.14425
1.1257
1.11747
1.14618
1.3585
1.32212
1.28275
1.25211
1.22405
1.19715
1.1811
1.15871
1.40807
1.35052
1.40941
1.46357
1.42428
1.45732
1.19859
1.19417
1.20093
1.22581
1.39044
1.29903
1.33885
1.25522
505.785
397.221
234.242
35.5629
172.519
96.0594
1.47248
1.75322
1.68511
44.9263
4.37004
12.5459
7.7518
1.98563
1.90196
2.08423
2.01143
2.40422
2.10074
5.13802
465.862
1040.86
1313.48
901.424
645.86
1472.93
1208.09
1518.18
992.185
1796.5
1840.75
1923.26
1805.38
1665.72
222.271
246.253
58.9963
11.5546
252.703
218.872
30.4845
11.1297
21.317
6.40695
13.4795
4.2391
9.34225
2.35254
4.41439
10.0704
30.2836
18.3798
37.3207
20.0305
26.5659
65.068
101.774
111.559
56.9126
53.9375
120.639
137.443
62.5476
70.1273
95.1408
96.2123
126.455
103.584
402.413
215.654
290.823
268.967
210.853
189.638
238.911
141.068
220.566
715.435
527.229
1197.72
937.084
1045.66
1487.63
1333.55
1675.77
1590.71
1779.73
1721
1.43958
1.40581
1.13099
1.14782
1.15066
1.13509
1.13312
1.15844
1.175
1.32593
1.28102
1.2634
1.22853
1.21536
1.18978
1.18098
1.16283
1.3706
1.33306
1.3531
1.37933
1.33166
1.36311
1.19357
1.2024
1.21627
1.26482
1.51834
1.37704
1.40893
1.30906
91.7036
191.354
291.459
1.63434
1.94033
1.90482
2.34434
2.31482
23.6712
102.255
7.07184
21.6024
2.57567
2.33284
3.99649
2.98096
8.19994
314.34
604.438
518.036
1137.51
1171.82
1386.79
1802.15
1939.59
1030.48
1658.65
2063.24
2000.73
2022.13
1875.17
223.089
198.715
102.356
249.124
231.57
290.706
234.68
151.638
319.669
395.978
225.181
107.494
175.427
66.7861
124.806
50.8101
65.8129
89.1034
64.3476
143.227
111.004
103.026
103.664
113.172
219.909
241.697
259.814
295.883
188.738
181.462
321.602
339.328
206.502
226.584
290.371
283.375
325.079
552.322
456.701
517.267
358.646
458.217
467.872
415.236
503.775
1028.9
827.353
1386.23
1239.61
1595.03
1516.27
1676.98
1611.74
1.48239
1.42109
1.37562
1.34151
1.16679
1.16266
1.16434
1.17396
1.19201
1.29984
1.27313
1.24796
1.22833
1.20847
1.1949
1.18532
1.29692
1.31646
1.27661
1.30357
1.27943
1.30286
1.2087
1.2094
1.23791
1.33044
1.25402
1.21357
1.68067
1.52427
1.54324
1.41733
1.81407
234.315
140.639
2.20778
2.22112
2.53944
2.6034
3.44166
4.1003
2.53573
26.7024
127.254
31.9178
9.78676
6.30309
28.6014
587.867
389.231
1298.67
1036.65
1762.17
1888.45
2168.21
2180.88
2255.15
2141.48
6.54735
33.2121
256.862
280.887
64.4808
236.913
310.735
252.149
417.66
447.122
256.891
338.19
455.194
436.255
454.39
299.515
376.791
278.141
242.565
228.093
388.286
290.908
400.967
332.47
340.486
455.501
502.95
502.842
531.4
448.478
427.707
379.655
594.445
611.95
472.924
491.748
631.913
628.625
820.98
927.423
805.203
768.185
834.07
745.613
806.998
1283.36
1180.89
1453.75
1385.28
1492.95
1430.9
0.889977
1.61151
1.49827
1.4598
1.41379
1.35988
1.32535
1.29072
1.18097
1.18321
1.18246
1.18492
1.21498
1.26199
1.24581
1.22486
1.21286
1.1985
1.23197
1.25327
1.23239
1.25515
1.24467
1.26406
1.21315
1.27097
1.28458
1.43001
1.25592
1.28121
1.92169
1.60452
1.67974
1.4522
2.26499
2.71166
2.82148
461.846
188.013
2.9667
2.37478
9.00519
4.26432
41.7751
34.5173
22.9528
142.834
231.771
81.081
1261.39
781.539
1932.55
1713.93
2236.85
2287.21
2503.38
2455.4
3.29586
20.381
254.284
394.886
41.0952
148.933
413.962
329.858
325.712
438.787
344.943
274.506
602.003
411.7
540.988
576.307
579.237
583.893
581.526
505.819
496.507
622.387
596.168
604.306
626.392
752.623
708.484
724.045
730.309
747.98
716.097
856.351
645.253
696.859
875.771
836.819
790.221
804.097
931.362
930.9
1010.36
1012.43
1199.23
1053.8
1070.22
1307.34
1251.51
1303.68
1258.77
0.781693
0.83694
0.893121
1.51125
1.46198
1.44294
1.40826
1.39154
1.35813
1.31211
1.25438
1.28782
1.38025
1.40434
1.19921
1.1863
1.17895
1.18038
1.21522
1.19539
1.1911
1.20151
1.21511
1.20599
1.22682
1.22241
1.23845
1.22647
1.26229
1.31072
1.40554
1.45537
1.34484
1.83532
2.31789
1.59829
1.90968
2.59348
3.70432
2.87787
3.89876
7.52361
2.03896
914.414
535.21
37.8725
14.9797
152.346
88.0319
401.766
712.825
301.151
1814.35
1582.04
2285.59
2399.32
2717.28
2723.43
2.4165
12.812
215.299
451.599
24.6621
97.9015
464.63
483.326
258.638
289.789
473.274
335.321
544.277
478.415
267.33
344.067
668.467
503.149
566.549
538.418
624.418
679.785
678.106
631.893
661.386
720.61
705.045
707.962
857.135
807.003
771.042
755.889
704.87
847.158
869.514
953.176
892.892
901.659
974.552
988.333
956.671
969.354
999.65
1016.51
1189.23
1142.06
1053.79
1180.46
1155.74
0.769964
0.791165
0.822758
0.88994
0.933422
1.44744
1.36857
1.35775
1.33361
1.33293
1.23058
1.2768
1.25673
1.30488
1.33148
1.31987
1.30181
1.32665
1.28939
1.28725
1.24438
1.24589
1.23088
1.19017
1.18801
1.18896
1.19277
1.2231
1.18838
1.19738
1.20447
1.2111
1.20839
1.22414
1.2285
1.26094
1.35534
1.29635
1.42859
1.57947
1.53352
1.68707
2.2062
2.71958
1.90703
2.30346
3.28484
4.93297
15.2526
10.889
9.39173
21.5678
75.9986
66.1349
1711.28
1161.5
336.156
312.166
801.789
1249.48
766.045
2263.58
2444.13
2798.2
2966.59
1.95543
7.67244
164.048
428.408
14.3272
57.5876
439.863
556.653
313.491
255.491
544.121
424.48
359.286
293.968
242.566
246.841
564.148
543.056
306.542
428.578
351.357
433.535
542.433
627.415
607.843
596.74
558.824
567.573
511.541
708.48
705.14
591.539
515.932
543.28
530.384
719.289
766.877
974.361
1007.62
1004.35
985.588
991.02
1011.61
1029.75
987.13
994.446
1.31826
0.778964
0.786077
0.806113
0.833601
0.86814
0.933591
0.978415
0.801607
0.799798
0.834673
0.82615
0.87427
0.857936
1.20022
1.21133
1.15695
1.16987
1.10948
1.12637
1.05916
1.08149
0.918371
0.896811
0.964466
0.938602
1.01109
1.03371
0.984243
1.29945
1.28969
1.27294
1.28009
1.24858
1.23759
1.26398
1.25785
1.25578
1.24176
1.26506
1.21756
1.22071
1.17622
1.18212
1.22968
1.1929
1.21003
1.19141
1.20775
1.21014
1.20632
1.21301
1.21318
1.22397
1.234
1.23269
1.23219
1.22915
1.32634
1.25602
1.48515
1.37477
1.572
1.83135
1.72945
2.04237
2.68141
3.92157
2.41924
3.06116
4.50533
13.6325
162.807
101.31
194.239
43.1513
178.285
459.213
570.937
2289.41
1852.5
1141.03
1866.76
1215.74
2889.52
2946.17
1.5437
4.90752
413.423
102.391
196.357
8.70048
34.8282
563.46
596.232
367.428
280.782
588.92
457.239
638.717
238.57
235.142
227.399
422.473
366.646
215.422
255.269
283.487
236.715
375.737
438.197
399.172
355.202
375.488
329.615
388.133
315.721
400.774
254.056
337.336
237.627
321.501
552.487
990.634
950.122
683.222
938.7
895.166
1.23718
0.973793
1.0186
0.812943
0.821304
0.846409
0.879418
0.918193
0.830887
0.83313
0.858024
0.856263
0.891372
0.884897
1.13584
1.14851
1.09661
1.11239
1.05468
1.07222
1.01244
1.03311
0.931231
0.918338
0.970746
0.992879
0.954534
1.24802
1.23878
1.22897
1.24424
1.23658
1.20137
1.20682
1.19661
1.21977
1.16453
1.17085
1.12433
1.13402
1.23018
1.2316
1.23101
1.24247
1.23517
1.24221
1.24416
1.23706
1.24823
1.26801
1.2505
1.25268
1.24842
1.37812
1.30156
1.31067
1.63747
1.45868
1.74551
2.20369
2.08159
2.59261
3.54919
7.71487
3.16759
4.97213
9.86419
74.3697
584.734
738.595
516.914
757.856
200.932
637.675
1122.74
1436.9
1943.86
3091.83
2335.15
1.38821
2.19646
4.32436
234.487
483.92
58.1999
143.017
14.7393
543.156
662.118
344.332
251.184
633.896
390.954
665.145
623.147
511.571
507.99
197.482
214.836
283.729
247.459
179.391
191.875
201.326
179.887
237.747
264.181
251.509
223.481
214.562
199.24
170.687
160.202
142.668
124.386
166.11
118.67
708.782
194.85
506.935
2929.44
1.022
1.09844
0.926478
0.985699
0.848574
0.863885
0.894287
0.863168
0.866582
0.884731
0.885386
0.910671
0.90956
1.08792
1.10111
1.05082
1.06884
1.01252
1.03248
0.977012
0.999742
0.945346
0.967338
0.937118
1.20963
1.20818
1.20324
1.19712
1.15771
1.17084
1.16293
1.19195
1.1228
1.13472
1.08864
1.10001
1.23246
1.21767
1.25806
1.24788
1.32387
1.29697
1.34105
1.32986
1.28007
1.29502
1.34645
1.3049
1.27877
1.37902
1.29786
1.29819
1.52678
1.51573
1.83826
1.81919
2.61561
2.47439
3.95644
2.98027
5.64439
18.1668
4.41469
8.10318
52.409
254.213
504.045
1306.59
1435.49
1173.94
1236.03
1628.86
2026.79
2283.66
29.3417
1.18111
1.22549
2.00923
2.71501
8.89643
376.927
91.621
184.801
625.235
436.779
230.089
299.219
634.214
654.236
319.84
410.422
664.042
607.522
527.014
419.939
171.517
194.329
187.619
178.241
153.367
157.355
152.092
152.953
156.307
166.768
118.745
122.037
95.755
96.171
85.7826
82.9721
112.64
84.2654
1.00074
1.061
0.890998
0.912857
0.956201
0.897064
0.91325
0.913479
0.917118
0.935318
0.934253
1.05517
1.07047
1.01955
1.04268
0.990108
1.01112
0.961228
0.983133
0.957363
1.20663
1.18318
1.18141
1.18427
1.12978
1.14634
1.17927
1.14623
1.09631
1.11461
1.06783
1.08324
1.26477
1.24072
1.24023
1.30517
1.27963
1.41898
1.4059
1.39427
1.42644
1.55281
1.50039
1.50198
1.46252
1.43835
1.37238
1.33757
1.51323
1.45104
1.56257
2.03434
1.79295
3.35991
3.48273
2.43769
3.27727
5.40811
5.82249
23.8503
73.2187
19.5334
201.989
414.416
741.005
1401.23
1942.89
2010.75
2375.45
8028.89
136.88
1.09957
17.5454
45.8253
1.21564
1.31107
1.37919
2.24634
3.11526
7.98581
372.892
258.432
642.217
584.516
200.732
254.096
699.546
679.931
276.606
367.958
641.856
559.954
427.47
146.725
170.522
125.898
129.962
129.495
119.652
103.22
106.031
86.0009
89.7214
80.5143
81.7635
79.48
82.2298
1.05217
0.934961
0.980157
1.01458
1.02543
0.932278
0.953108
0.943854
0.951854
0.957912
0.959453
1.03392
1.05669
1.00776
1.03021
0.981638
1.00507
0.980579
1.06155
1.17895
1.1779
1.1851
1.16166
1.13988
1.11595
1.18849
1.11464
1.09515
1.09132
1.25956
1.22227
1.28777
1.32975
1.33376
1.41567
1.39632
1.55818
1.59814
1.65577
1.63106
1.85314
1.84306
1.781
1.59457
1.55489
1.75534
1.71574
1.89082
1.8799
2.66025
2.5456
6.37463
6.56468
6.08945
4.60262
35.6272
26.273
262.553
163.591
591.995
757.454
1115.27
1966.92
272.123
80.9029
134.665
1.25498
1.17059
12.4451
38.5885
1.34406
1.61934
2.19045
2.65473
7.93707
551.23
429.616
715.202
694.778
176.601
232.061
728.942
653.248
532.393
417.858
274.584
125.222
145.492
97.8977
107.159
104.577
86.4614
90.1916
84.3611
84.9518
85.9957
87.6824
1.11642
1.18115
0.98351
0.997913
1.06987
1.13965
0.976462
0.990669
0.977264
0.990011
0.989283
0.99575
1.05683
1.03962
1.01758
1.03431
1.01199
1.25364
1.09514
1.0789
1.07859
1.16915
1.17905
1.14506
1.23428
1.187
1.15808
1.12807
1.34405
1.33138
1.42543
1.3904
1.5251
1.51263
1.72264
1.67238
1.92211
2.02216
2.53046
2.34085
2.21332
1.99803
1.91872
2.09428
2.08789
2.41907
2.49122
2.46124
5.30246
4.19413
38.7475
13.0059
17.7077
10.2793
284.29
155.421
747.686
518.17
1059.16
941.431
417.514
191.965
282.8
63.0417
124.043
1.43384
1.27675
11.906
32.5099
2.605
1.529
5.38433
676.868
581.297
757.626
774.663
237.911
173.91
144.464
736.576
544.12
440.045
309.727
254.382
102.057
116.776
87.1445
91.0238
85.7304
85.5712
90.9551
89.4906
1.21209
1.32908
1.02598
1.08814
1.13918
1.25416
1.02482
1.05622
1.03571
1.01042
1.04921
1.04785
1.08205
1.05597
1.07433
1.33064
1.28651
1.14467
1.12966
1.14667
1.13444
1.19886
1.268
1.18079
1.20515
1.17391
1.52976
1.52019
1.4504
1.65815
1.62579
1.87681
1.99144
1.94456
2.3479
2.28677
4.17455
3.21525
3.31866
3.00403
2.81994
2.70727
3.82588
3.85922
3.7476
3.38397
6.42774
23.3064
16.4139
200.435
90.0776
94.5893
585.584
408.782
963.474
783.4
342.157
538.427
645.338
163.783
314.244
48.7988
114.636
1.45095
1.83605
7.57287
31.1401
2.03329
4.60569
794.96
768.158
795.351
775.625
851.121
149.876
174.924
115.953
660.546
503.222
333.847
280.181
171.006
87.3739
97.3324
85.3371
83.4515
91.4512
88.5996
1.36243
1.5705
1.10063
1.17404
1.25017
1.43216
1.11139
1.08662
1.14845
1.14384
1.14105
1.13664
1.12922
1.42729
1.32351
1.19927
1.21041
1.18036
1.23736
1.3108
1.25829
1.31325
1.25243
1.85121
1.76217
1.71841
1.57862
2.28986
2.59706
2.39847
2.61267
2.96549
2.79422
3.89163
3.32986
4.96229
5.46657
5.38001
3.63239
8.20471
8.53601
6.60855
74.8179
37.9665
201.59
183.191
508.015
399.489
799.268
707.642
365.531
547.729
677.06
165.421
323.563
45.0508
113.831
2.52466
1.82184
7.94251
5.32422
24.0078
672.104
890.126
880.648
890.075
814.823
864.275