/*--------------------------------*- C++ -*----------------------------------*\
  =========                 |
  \\      /  F ield         | OpenFOAM: The Open Source CFD Toolbox
   \\    /   O peration     | Website:  https://openfoam.org
    \\  /    A nd           | Version:  8
     \\/     M anipulation  |
\*---------------------------------------------------------------------------*/
FoamFile
{
    version     2.0;
    format      ascii;
    class       volScalarField;
    location    "8000";
    object      p;
}
// * * * * * * * * * * * * * * * * * * * * * * * * * * * * * * * * * * * * * //

dimensions      [0 2 -2 0 0 0 0];

internalField   nonuniform List<scalar> 
4109
(
-0.00552579
-0.0177859
-0.00879508
-0.0287622
-0.0299031
-0.0185357
-0.0287147
-0.0146656
-0.0392328
-0.0397032
-0.039024
-0.0429677
-0.00912961
-0.0228966
-0.0317838
-0.0463751
-0.0507385
-0.0467477
-0.0451169
-0.0419979
-0.00271905
-0.032453
-0.0327673
-0.0538006
-0.0546447
-0.0622796
-0.00304257
-0.00826535
-0.00559611
-0.0520841
-0.0456155
-0.04707
-0.0299946
-0.086903
-0.061849
-0.0572764
-0.0622808
-0.0762984
-0.0165437
-0.00504664
-0.000188602
-0.0132558
0.000367599
-0.0561609
-0.0518666
0.0902539
-0.0558661
-0.0471426
-0.0550946
-0.0764569
-0.068345
-0.0659198
-0.0717181
-0.0884925
-0.0239828
-0.010974
-0.00520102
0.0150036
-0.00959599
-0.0210378
-0.0678271
0.0650763
-0.0617072
-0.0562632
-0.0523756
-0.033738
-0.0585413
-0.0519965
-0.0577846
-0.053728
-0.10542
-0.0804858
-0.125728
-0.125612
-0.127192
-0.0299796
-0.0327784
-0.0231679
-0.0123395
-0.0206197
-0.0118106
-0.0150885
-0.0160253
-0.0261988
0.0156265
-0.206776
0.123729
-0.236298
-0.00807795
-0.0812779
-0.0713079
-0.0615848
-0.0557839
-0.0534129
-0.0541346
0.0316155
-0.0530979
-0.062072
-0.125482
-0.108885
-0.0979366
-0.139535
-0.137422
-0.145652
-0.151154
-0.0344607
-0.0374521
-0.0399368
-0.0230774
-0.00478542
0.0639269
-0.0153898
-0.0156418
-0.0236857
-0.0302483
-0.578995
0.112111
0.011859
-0.0055335
-0.30975
-0.120374
0.261525
-0.0883547
-0.0778321
-0.0696249
-0.0563278
-0.0551201
-0.0465155
-0.0744645
-0.0633463
-0.0570148
-0.119953
-0.111702
-0.148662
-0.133541
-0.178192
-0.16658
-0.0416315
-0.0476007
-0.0504563
-0.0340479
0.00851455
0.059557
-0.0129805
-0.0243358
-0.0271914
-0.0345712
0.0879513
0.0819945
-0.215384
-0.100534
-0.137555
0.0954181
-0.0863033
-0.0842278
-0.0757746
-0.0601884
-0.0486906
-0.0438101
-0.0396952
-0.00611624
-0.028704
-0.109039
-0.100061
-0.148137
-0.123461
-0.166356
-0.181522
-0.21481
-0.052022
-0.0581439
-0.0627893
-0.0509465
0.00794789
0.0295368
-0.0199102
-0.0237793
-0.0259451
-0.0428237
0.0191595
-0.158092
0.0161523
-0.0697596
-0.083873
-0.0218763
-0.0804088
-0.0853497
-0.0724172
-0.0459576
-0.0461273
-0.0282039
-0.013926
-0.0107813
-0.0931219
-0.10053
-0.138647
-0.112033
-0.157502
-0.185371
-0.216399
-0.256868
-0.0663494
-0.0725278
-0.0757066
-0.0670687
-0.0157636
0.00394736
-0.0101238
-0.0119764
-0.0242142
-0.0568336
-0.0928763
-0.103698
-0.084758
-0.0155031
-0.0944074
-0.0463063
-0.076895
-0.0782864
-0.0945677
-0.0488097
0.0960027
0.0667226
-0.0808439
-0.0860229
-0.127755
-0.0967958
-0.147386
-0.178886
-0.215673
-0.256429
-0.302699
-0.0825002
-0.0866968
-0.0873145
-0.0801278
-0.00856782
0.0293783
0.00988494
0.0131888
-0.0990098
-0.0381956
-0.0736375
-0.0639117
-0.0631248
0.0544944
-0.138897
-0.208994
-0.0526313
-0.0851237
-0.060483
-0.0901674
0.0603665
0.0674181
-0.0633897
-0.0656034
-0.111678
-0.076768
-0.131078
-0.169904
-0.206591
-0.24916
-0.298448
-0.349645
-0.104268
-0.0951149
-0.0918655
-0.116357
0.0209358
0.101264
-0.0173432
-0.113258
-0.0906894
-0.0616811
-0.175263
-0.129535
-0.231292
0.0633923
-0.197167
0.0100488
1.07772
-0.0566368
-0.0103646
-0.337664
-0.0965726
-0.0537026
-0.0291816
-0.086336
-0.044409
-0.108925
-0.153066
-0.196148
-0.237435
-0.285905
-0.333457
-0.370428
-0.383114
-0.1136
-0.116872
-0.108246
-0.134143
-0.130551
0.0197579
0.100826
-0.0554364
-0.107506
-0.0842418
-0.0651177
-0.22239
-0.0284615
-0.0484746
0.402587
0.0500366
1.08361
1.12335
1.13587
1.02828
1.02852
0.970106
-0.661743
-0.249241
-0.148226
-0.112597
0.0145968
-0.0465184
-0.0388393
-0.0806491
-0.132075
-0.178125
-0.371187
-0.226171
-0.272015
-0.322452
-0.394604
-0.400865
-0.411654
-0.386624
-0.136956
-0.136483
-0.15344
-0.148475
-0.125115
-0.0256623
-0.0109661
-0.0909942
-0.103955
0.335318
0.118047
1.0125
-0.105106
1.19947
1.1632
1.16928
1.07738
1.1963
1.21827
-0.31491
-0.362475
-0.329538
0.946343
0.921673
0.992719
0.909319
1.01622
0.10933
0.16456
0.16089
0.0233625
-0.0274723
-0.399245
-0.104773
-0.109039
-0.155197
-0.204858
-0.360139
-0.260978
-0.310936
-0.437811
-0.41914
-0.424822
-0.437724
-0.427426
-0.438063
-0.166545
-0.159474
-0.174345
-0.1653
-0.142071
-0.122752
-0.0967291
-0.153518
-0.104158
0.778447
0.616076
1.24442
1.23168
1.15581
1.27665
1.30526
-0.247505
-0.192622
-0.195098
-0.484598
-0.319609
0.82684
0.811847
0.842249
0.941756
1.08248
-0.0894086
0.445946
0.435811
0.0322696
-0.0789195
-0.394404
-0.420999
-0.114617
-0.130985
-0.173794
-0.234382
-0.354393
-0.30284
-0.473118
-0.451162
-0.48423
-0.474725
-0.518213
-0.597513
-0.197969
-0.185773
-0.120215
-0.203181
-0.178694
-0.158328
-0.13852
-0.223511
-0.108752
-0.077835
-0.104864
-0.263169
1.2046
1.32554
1.32263
1.23106
1.3707
1.40675
-0.797893
-0.0186694
0.187746
-0.0815266
-0.0975577
0.629358
0.410051
-0.313769
-0.16886
0.716086
0.842476
0.987373
1.16472
-0.155552
0.0239483
0.132114
-0.0273983
-0.101702
-0.401079
-0.44592
-0.128889
-0.144115
-0.191754
-0.269493
-0.354522
-0.528421
-0.491492
-0.552984
-0.55359
-0.655204
-0.867493
-0.23202
-0.24485
-0.216088
-0.123121
-0.134703
-0.174527
-0.194042
-0.150594
-0.245356
-0.21586
-0.521988
-0.250632
-0.239667
-0.0476064
1.24973
1.2332
1.16505
1.4286
1.42527
1.32432
1.48542
1.53887
-0.632276
-1.19528
0.0451292
0.200083
0.0719195
0.402518
0.58403
-0.0993126
0.0131068
0.711465
0.870312
1.07775
1.27786
-0.257196
-0.225659
-0.229388
-0.0576278
-0.0470163
-0.101427
-0.414411
-0.477174
-0.136595
-0.160726
-0.225732
-0.323346
-0.539954
-0.597699
-0.643845
-0.667033
-0.869549
-1.17159
-1.45097
-0.269968
-0.282548
-0.145869
-0.140795
-0.165304
-0.185392
-0.209586
-0.281928
-0.242632
-0.202825
-0.0788271
0.366294
1.32519
1.30187
1.23936
1.06962
1.16143
1.54943
1.55032
1.43794
1.59931
1.63051
-0.394079
-0.998009
-1.7126
0.550422
0.253355
0.353008
0.129571
0.184636
0.730931
0.967133
1.2242
1.41105
0.302491
-0.185733
-0.25224
-0.261361
-0.101226
-0.021371
-0.0521108
-0.394126
-0.477968
-0.198576
-0.135269
-0.285772
-0.568058
-0.663927
-0.756194
-0.8299
-1.09985
-1.38823
-1.76776
-2.05772
-0.315453
-0.320907
-0.12091
-0.147971
-0.166129
-0.1873
-0.223687
-0.318085
-0.283444
-0.244968
-0.0487612
0.0238361
1.4314
0.967525
1.34119
1.27436
1.14691
1.67598
1.68029
1.56764
1.72199
1.73571
1.70103
-0.110608
-2.17652
-0.695833
-1.36907
0.33693
0.547735
0.369424
0.824666
1.15456
1.3846
1.56177
0.0280822
-0.113827
-0.173972
-0.141642
-0.0751103
0.0938112
0.0347161
-0.48142
-0.371581
-0.264358
-0.182542
-0.601675
-0.736802
-1.00268
-0.872928
-1.30751
-1.96686
-1.62627
-2.26187
-2.4995
-0.359703
-0.356646
-0.355845
-0.134787
-0.155886
-0.195399
-0.246955
-0.321131
-0.282392
-0.0872934
-0.0734157
1.55463
1.43127
0.822697
0.955406
1.33489
1.21892
1.04385
1.79429
1.78934
1.70841
1.84535
1.83969
1.81612
0.159008
-2.72853
-0.33638
-1.78262
-0.950621
0.495034
0.65826
0.394107
1.02754
1.33414
1.55744
1.72954
0.0198915
-0.0203961
-0.0983335
-0.102036
0.029555
0.178557
-0.00201712
-0.511219
-0.358689
-0.268671
-0.680308
-0.83604
-1.16723
-1.00314
-1.55541
-1.96326
-2.32559
-2.73459
-3.09648
-0.401051
-0.39366
-0.396176
-0.364886
-0.142147
-0.163258
-0.218448
-0.281103
-0.323239
-0.0768833
-0.0422306
1.6772
1.5824
1.5166
1.41409
0.634291
0.814914
0.92599
1.29196
1.15665
1.00518
0.42181
1.88402
1.87176
1.79038
1.85933
1.95433
1.91827
1.95413
0.0570165
-2.27476
-0.50828
-1.31442
0.656783
0.862514
0.429114
1.91237
1.22006
1.53079
1.75935
0.0454233
-0.041971
-0.0820605
-0.0521806
-0.163656
0.032795
0.0557809
-0.533536
-0.345545
-0.89603
-0.758163
-1.31819
-1.66336
-1.155
-2.21121
-2.84215
-3.36251
-0.416387
-0.449952
-0.444829
-0.415602
-0.373246
-0.156918
-0.182171
-0.254406
-0.32445
-0.0772002
-0.0297807
-0.39673
-0.33973
1.69465
1.61854
1.50232
1.3791
0.64301
0.810971
0.94496
1.23251
1.08841
0.455991
0.207756
0.00813694
-0.160127
-0.274557
1.91013
1.94358
1.87819
1.79988
2.09514
2.00612
2.03618
1.9995
-0.0357407
-1.73915
-0.792572
1.04788
0.783647
0.641917
0.382253
2.20263
1.98313
1.44613
1.77985
0.0309471
-0.110779
0.0174395
0.498072
-0.351235
-0.0492148
-0.724722
-0.4935
-1.56041
-1.15072
-1.92888
-2.78836
-3.50359
-0.46439
-0.490691
-0.474216
-0.43385
-0.379002
-0.177189
-0.220603
-0.303631
-0.0575398
-0.0714173
-0.334163
-0.440569
-0.371241
1.71353
1.60558
1.47739
1.32183
0.661292
0.833989
1.00227
1.15634
0.496695
0.2544
0.333707
-0.331035
0.0549799
-0.244597
-0.114123
1.89868
1.96435
1.81756
2.03563
2.24993
2.12652
2.08062
2.3812
-0.247316
-1.13997
1.28085
1.15693
1.02087
0.999465
0.319785
2.07101
2.34312
1.78057
0.219013
0.148013
0.901292
0.566033
-0.251211
-0.391193
-0.877032
-0.564992
-1.67074
-2.56247
-3.49794
-0.519266
-0.532736
-0.505567
-0.451616
-0.36897
-0.22897
-0.280447
-0.0937326
-0.106916
-0.411182
-0.520331
1.83082
1.71824
1.58594
1.42801
1.23785
0.69133
0.884128
1.05967
0.534764
0.378483
0.189014
-0.416291
-0.367465
0.0382911
-0.278254
-0.137606
1.92365
2.00359
1.94429
2.12133
2.55364
2.39877
2.23056
2.53042
1.9463
-0.483677
1.71644
1.59033
1.43843
0.940098
0.234291
2.36174
2.20594
2.52562
0.197999
0.635961
2.16064
0.458164
0.476482
-1.23388
-0.768611
-2.15797
-3.33663
-0.587182
-0.581801
-0.544806
-0.462398
-0.298133
-0.362563
-0.155638
-0.149195
-0.522077
-0.627751
1.83593
1.71173
1.5498
1.33437
1.13063
0.73871
0.935021
0.573596
0.381795
0.187561
-0.503726
-0.441383
-9.74319e-05
-0.334409
-0.183285
2.08319
2.02814
2.28245
2.93828
2.71579
2.73353
2.55294
2.00236
1.88052
1.55897
0.98339
2.28341
2.72038
3.03261
0.120913
0.84928
-0.129714
-0.198261
-1.67423
-0.963164
-2.98716
-0.655798
-0.645886
-0.590479
-0.295608
-0.454175
-0.346477
-0.648283
-0.720493
1.69369
1.84697
1.45792
1.20357
0.99808
0.783095
0.602914
0.39482
0.17088
-0.626467
-0.554899
-0.0558556
-0.432408
-0.262431
2.13717
2.23335
2.52587
3.24818
2.98169
2.83285
3.49452
2.04408
2.12891
1.73236
2.6685
3.11666
3.54149
-0.208319
0.0811182
0.121235
-0.195404
-2.39561
-1.35347
-0.746231
-0.717278
-0.487109
-0.603369
-0.621151
-0.760658
-0.842921
1.6298
1.82847
1.32121
1.07334
0.83689
0.63811
0.401542
0.140873
-0.753856
-0.685177
-0.12046
-0.550726
-0.357443
2.2526
2.4225
2.80865
3.51038
3.17259
3.92299
2.02895
2.44875
3.12975
3.71693
4.23604
-32.1654
-0.239862
0.284357
0.336224
-0.404406
-31.4253
-0.852618
-0.764864
-0.88896
-1.00601
-0.709767
-0.912211
-0.993574
1.75089
1.51176
1.19621
0.909878
0.689012
0.412009
0.105697
-0.924297
-0.853678
-0.198605
-0.699761
-0.475115
2.65357
2.34196
3.28945
3.97025
4.59808
2.52016
2.07508
-34.2451
-32.1657
-0.148274
0.149303
0.193316
-29.3945
-31.2999
-31.6624
-0.989253
-1.04012
-1.17268
-1.19776
-0.825242
-1.11777
-1.19059
1.71602
1.41321
1.03267
0.778853
0.429544
0.0512622
-1.17507
-1.09413
-0.311692
-0.638722
-0.906101
3.0914
3.90842
4.73257
2.9378
2.5167
2.07858
-35.2265
-34.3145
-32.1666
-0.504238
-28.8037
-31.0403
-33.8591
-30.8738
-1.32381
-1.4953
-1.54162
-1.34446
-1.4301
-1.46569
1.64084
1.24276
0.940861
0.469651
-0.00793393
-1.56722
-1.43735
-0.449288
-0.843336
-1.17681
3.75758
4.71411
2.85088
3.50922
2.52526
2.0685
-36.0622
-35.3734
-34.3483
-32.1506
-34.9217
-27.3778
-28.5621
-30.7876
-33.995
-30.6621
-1.76601
-1.98101
-2.32076
-1.928
-1.76939
-1.93932
1.51312
1.01685
0.453761
-0.103143
-2.15659
-1.86658
-0.628518
-1.10153
-1.51631
4.54676
3.21318
4.19955
2.76707
2.20175
-36.0721
-35.4982
-34.3648
-32.1303
-33.726
-35.1619
-27.5214
-27.3793
-28.4337
-30.5604
-33.9089
-30.6476
-2.30519
-2.89603
-2.4384
-2.56383
-2.70003
1.60688
1.00459
0.376781
-0.25877
-2.53304
-2.25147
-0.862824
-1.40899
-1.88481
3.72355
3.13527
2.45468
-38.6442
-35.9467
-35.5848
-34.3748
-32.1072
-33.7948
-35.3247
-25.41
-27.5597
-27.3486
-28.3417
-30.3532
-33.7838
-30.5675
-3.21669
-3.36489
-3.41164
-3.36283
1.7452
1.00907
0.25903
-0.473048
-3.1325
-2.76613
-1.15625
-1.77328
-2.31538
-41.467
-38.7524
-35.83
-35.6464
-34.3864
-32.0846
-33.9304
-35.484
-24.9791
-25.429
-27.5895
-27.3005
-28.2696
-30.168
-33.6399
-30.3995
-46.1335
-41.6609
-38.8257
-35.7427
-35.6917
-34.4003
-32.0616
-34.0445
-35.656
-21.0043
-25.1594
-25.4442
-27.593
-27.2737
-28.1979
-30.0491
-33.4917
-30.1979
-48.7745
-45.9736
-41.771
-38.8868
-35.684
-35.727
-34.4166
-34.1304
-35.845
-25.3352
-20.8066
-25.2921
-25.4435
-27.5774
-27.2631
-28.1212
-33.3722
-93.9561
-48.3158
-45.9449
-41.8493
-38.9168
-35.6457
-35.7498
-34.1805
-36.0192
-20.085
-26.1163
-20.8154
-25.3564
-25.4419
-27.5526
-27.269
-33.3188
-30.0638
-103.252
-47.1818
-46.0014
-41.9087
-38.9228
-35.6261
-34.1813
-21.6781
-20.2046
-26.941
-20.8446
-25.381
-25.4425
-27.5276
-27.2759
-44.1829
-30.3366
-112.21
-45.9415
-46.0823
-41.9399
-38.9123
-34.1505
-20.939
-21.7448
-20.2738
-27.7272
-20.8795
-25.3831
-25.4492
-27.518
27.0539
-51.6493
-29.8763
-120.305
-44.6928
-46.1545
-41.9475
-38.8883
-20.8913
-20.8965
-21.8231
-20.3451
-28.4559
-20.9241
-25.3767
-25.4572
34.628
30.019
-59.9747
-29.2076
-127.445
-43.4317
-46.1589
-41.9314
-20.4723
-20.8357
-20.8561
-21.8782
-20.4309
-29.1621
-20.953
-25.3857
47.1956
35.648
32.9732
-67.6794
-28.4342
-134.189
-42.275
-46.0928
-20.479
-20.4036
-20.781
-20.8222
-21.9165
-20.5277
-29.8453
-20.9426
49.953
48.0492
36.706
35.1226
-74.6805
-27.5366
-141.254
-41.4937
-20.9059
-20.4077
-20.3303
-20.728
-20.7965
-21.9447
-20.6222
-30.271
49.9382
50.4984
48.9449
37.5805
36.9122
-81.555
-26.7457
-146.581
-20.954
-20.8479
-20.3329
-20.2625
-20.678
-20.7773
-21.9665
-20.6909
47.594
50.536
51.1043
49.6666
38.4386
38.6038
-89.2105
-26.6209
-21.6923
-20.9087
-20.7919
-20.2639
-20.2025
-20.6329
-20.7616
-21.981
34.8834
48.3306
51.1326
51.6538
50.2474
39.3847
40.3339
-95.6874
-20.0389
-21.7634
-20.8673
-20.7372
-20.203
-20.1507
-20.5978
-20.7501
27.4435
36.0303
49.1994
51.6761
52.1342
50.7306
40.3938
41.5797
-25.3325
-20.1236
-21.8424
-20.8328
-20.6852
-20.1504
-20.1122
-20.5806
-43.9311
30.5167
37.2396
49.914
52.1553
52.5583
51.1069
41.0448
-21.0008
-26.1682
-20.1865
-21.899
-20.807
-20.6381
-20.1112
-20.0945
-30.2273
-51.6476
33.6156
38.2325
50.4936
52.5779
52.912
51.3254
-24.8934
-20.7938
-27.0048
-20.254
-21.9393
-20.7878
-20.6011
-20.0931
-94.1785
-30.7829
-60.147
35.9195
39.1571
50.9684
52.9272
53.1125
-25.3726
-25.0738
-20.7952
-27.7903
-20.3345
-21.97
-20.7722
-20.5831
-49.1843
-103.869
-30.4405
-67.9854
37.888
40.1131
51.3438
53.1242
-27.5305
-25.397
-25.2014
-20.8221
-28.5169
-20.4241
-21.9942
-20.7606
-45.9007
-48.6725
-112.912
-29.824
-75.1006
39.7898
41.0422
51.5586
-27.2702
-27.5555
-25.4124
-25.2601
-20.8572
-29.2198
-20.5137
-22.0101
-41.7579
-45.7624
-47.4889
-121.051
-29.0777
-82.106
41.623
41.6003
-30.6081
-34.3264
-27.2772
-27.5847
-25.4131
-25.2812
-20.9011
-29.8896
-20.576
-38.4249
-41.9281
-45.7576
-46.2402
-128.246
-28.2009
-89.7774
43.0602
-28.2528
-30.5407
-34.3565
-27.2457
-27.5899
-25.413
-25.2776
-20.9282
-30.3027
-33.9798
-38.5477
-42.0244
-45.829
-44.9824
-135.027
-27.4073
-96.242
-34.7222
-31.0481
-27.9343
-30.6113
-34.2865
-27.1971
-27.5758
-25.4152
-25.2699
-20.9175
-33.8781
-38.6292
-42.0995
-45.9218
-43.7193
-142.136
-27.3262
-35.0811
-35.8979
-31.839
-30.8485
-27.816
-30.5666
-34.2042
-27.1703
-27.5524
-25.422
-25.2769
-35.3344
-34.16
-33.9969
-38.6942
-42.1558
-46.0002
-42.5467
-147.487
-35.2598
-35.9459
-31.7929
-30.5766
-27.7153
-30.4349
-34.0951
-27.1635
-27.529
-25.4309
-35.4192
-34.2357
-34.124
-38.7276
-42.1906
-46.007
-41.8026
-35.407
-35.8389
-31.7586
-30.3358
-27.6405
-30.2467
-33.9772
-27.1677
-27.5192
-35.5368
-34.2435
-34.2207
-38.739
-42.2018
-45.9398
-35.5641
-35.7228
-31.7303
-30.1226
-27.5916
-30.0385
-33.8858
-27.1735
-35.627
-34.251
-34.2776
-38.7298
-42.1878
-35.7379
-35.6341
-31.7027
-29.925
-27.541
-33.8509
-35.6913
-34.2579
-34.2849
-38.7072
-35.9
-35.5759
-31.6736
-29.7547
-27.4752
-35.7385
-34.2688
-34.2558
-35.5392
-31.64
-29.6439
-35.7754
-34.2844
-35.5207
-31.6168
-35.8003
-34.3011
-3.24484
-3.62949
-3.68141
-4.19491
-4.17258
-4.74154
-3.17425
-3.64063
-2.71785
-3.96061
-4.02746
-4.58036
-4.66941
-5.33271
-5.33411
-6.00109
-8.06071
-8.8277
-8.88906
-9.80389
-9.62546
-5.98108
-6.65788
-4.70994
-5.32854
-3.55874
-4.09084
-2.60518
-3.01622
-2.13396
-10.5553
-10.1889
-4.15174
-4.33847
-4.93436
-5.04159
-5.65366
-5.86943
-6.63312
-6.65889
-7.42369
-7.36496
-8.07559
-8.82494
-9.60925
-9.59871
-10.4382
-10.6187
-11.6202
-11.5138
-6.60185
-7.31698
-7.28411
-8.07355
-8.00498
-8.79328
-9.28036
-5.2135
-5.84417
-3.91156
-4.47319
-2.83432
-3.26511
-1.94094
-2.27176
-1.46031
-8.66246
-9.06322
-12.4825
-13.4032
-10.1231
-10.9125
-11.8778
-4.23581
-4.46983
-5.09259
-5.33342
-6.03159
-6.14107
-6.88325
-7.18081
-8.00866
-8.09134
-8.88657
-9.65823
-10.4989
-10.4548
-11.2934
-11.2477
-12.2146
-12.3811
-13.0828
-13.4068
-14.5052
-14.014
-14.8875
-5.68544
-6.46939
-6.57646
-7.25405
-7.44672
-4.26677
-4.88732
-3.01029
-3.50484
-2.01444
-2.36064
-0.702619
-1.1843
-1.44838
-7.11608
-7.8871
-7.63495
-8.78442
-10.1509
-14.4628
-12.5221
-13.9127
-11.3819
-12.5493
-4.14835
-4.49677
-5.16131
-5.45523
-6.17892
-6.47785
-7.20814
-7.41076
-8.22288
-8.49572
-9.1776
-9.66031
-11.2026
-10.8253
-12.2266
-12.2409
-13.308
-13.233
-13.8692
-14.6553
-15.1185
-15.1779
-16.0917
-15.8049
-15.6455
-16.2069
-16.3347
-17.53
-4.9023
-5.72437
-5.32654
-6.04014
0.142402
-0.33974
-3.34894
-4.08118
-2.02711
-2.50682
-0.515436
-1.0849
-1.3552
1.03105
0.585555
-5.66297
-6.45291
-6.30606
-18.6669
-17.5986
-19.3006
-7.65771
-8.9659
-10.2595
-11.4375
-13.7213
-14.8544
-16.5248
-15.865
-12.6901
-13.7764
-3.91245
-4.33705
-5.05598
-5.45704
-6.21566
-6.55367
-7.31442
-7.63678
-8.73354
-8.40609
-9.61456
-9.8109
-10.712
-11.2712
-12.8853
-12.3651
-13.8298
-13.9464
-14.63
-15.2061
-15.0749
-20.6276
-21.0386
-19.7844
-16.1793
-15.9489
-16.937
-16.8964
-17.2515
-18.0573
-17.6463
-19.7769
-19.0333
-29.4194
-30.1398
-29.7993
-32.4057
-31.2344
-30.7696
-30.9994
-30.6828
-3.67451
-4.25856
-3.71483
-4.40045
0.510997
-0.0592394
-2.11493
-2.68931
-0.252773
-0.940049
-1.26556
1.92334
1.54965
1.57445
1.06429
-3.94202
-4.82686
-7.65979
-4.48516
-6.00735
-29.1135
-27.5406
-23.5004
-22.7415
-21.3626
-16.9776
-18.3706
-19.1382
-20.5897
-7.87552
-8.97802
-8.82969
-10.3625
-11.6938
-12.998
-14.2991
-15.122
-16.4945
-29.8199
-30.7838
-32.3366
-30.6971
-32.133
-33.7944
-32.6431
-31.7985
-33.0614
-32.8836
-3.38877
-4.00683
-4.81742
-5.31555
-6.13903
-6.56686
-7.48074
-7.76988
-8.57007
-8.84797
-10.2388
-9.76968
-11.0921
-11.2494
-12.2629
-12.8358
-12.875
-14.2125
-13.8033
-14.9748
-15.682
-15.6298
-16.653
-16.7323
-16.3684
-21.9853
-22.9037
-25.0249
-24.1611
-21.6444
-20.7309
-17.6748
-17.7541
-18.3588
-18.6265
-20.5975
-19.4066
-19.0836
-25.6173
-27.6022
-27.167
-27.7159
-27.097
-29.1851
-29.4282
-30.011
-32.0848
-31.1102
-31.5492
-31.2679
-31.6558
-31.7665
-32.3081
-31.9989
-31.5433
-31.6647
-2.04427
-2.55301
-1.83834
-2.5368
1.01051
0.318423
0.148319
-0.660235
-0.965444
2.76441
2.45239
2.58167
2.15481
2.24434
1.69559
-1.69865
-2.32368
-3.63995
-3.96911
-5.50078
-6.39494
-2.93369
-24.7461
-27.1918
-26.1103
-29.9352
-28.6088
-24.0312
-25.2178
-23.4032
-21.4394
-6.4573
-21.1823
-17.4005
-19.7702
-18.7327
-7.53528
-8.51221
-10.0569
-10.5478
-12.1121
-12.5614
-14.3448
-15.337
-17.0893
-30.0293
-30.902
-29.8918
-32.8807
-32.5995
-34.1747
-32.3557
-32.2125
-31.4104
-31.9471
-33.1798
-32.8745
-2.72612
-3.37025
-2.13825
-2.19583
-4.32796
-5.03618
-6.00539
-6.48529
-7.49598
-8.02899
-9.1143
-9.23236
-10.525
-11.3718
-10.2523
-12.0109
-12.6119
-13.5633
-14.0839
-14.8985
-13.5543
-14.0919
-15.585
-15.6219
-15.6475
-16.4635
-16.3392
-16.4361
-16.4209
-17.1675
-17.2775
-17.9821
-18.3462
-22.5787
-23.5659
-24.6441
-24.0192
-22.2552
-21.5665
-19.3112
-19.6156
-21.3969
-20.4225
-20.3348
-25.4594
-25.1062
-25.515
-28.2912
-27.1481
-29.0046
-28.7795
-30.4684
-27.5641
-30.0289
-30.2966
-31.7364
-31.3494
-31.0017
-32.2478
-30.3166
-31.4125
-0.440947
-0.246892
-0.650307
0.0311502
1.68603
0.928277
0.737366
0.293369
3.58189
3.34658
3.60342
3.2495
3.45465
2.96551
3.07698
2.41839
4.3071
4.16525
4.89116
4.91393
5.47879
5.33297
1.09195
-0.50762
-1.29104
-1.33158
-5.17745
-3.43548
-1.56197
-0.784555
-28.6128
-28.1902
-26.578
-22.4301
-25.6898
-24.2269
-4.88913
-6.63615
-8.40916
-22.7224
-18.5753
-21.1504
-19.9289
-10.1594
-11.2178
-12.7327
-13.2362
-14.8556
-15.405
-17.4062
-28.948
-32.6795
-33.3096
-32.1794
-31.2034
-34.2026
-35.2162
-34.3833
-35.1968
-33.0253
-33.0104
-33.5884
-34.3276
-33.9424
-1.31311
-1.82457
-4.31587
-4.37022
-3.1296
-3.7297
-5.68975
-6.24694
-8.04838
-8.09409
-9.1914
-9.66652
-11.271
-11.2228
-12.1084
-12.6966
-13.6625
-13.9843
-14.9084
-14.7505
-15.5009
-16.1035
-17.0256
-16.6809
-17.3041
-16.9669
-17.68
-17.7155
-17.9428
-17.8734
-18.6604
-19.0002
-19.6479
-20.0241
-24.1695
-22.9136
-23.7958
-23.2244
-22.2191
-20.6233
-21.6087
-21.0419
-21.4546
-26.3368
-24.9002
-27.4053
-25.884
-27.899
-28.1193
-27.416
-31.0308
-28.8649
-32.9137
-31.0338
5.53771
5.80782
0.941325
1.14659
2.4411
1.69149
1.82436
2.12977
2.42679
4.50789
4.21098
4.5154
4.12577
4.39835
3.88251
4.13003
3.45961
5.35285
5.21069
6.02118
6.03209
6.63106
6.4423
2.96723
2.54137
2.4736
0.691075
-3.08384
-1.51737
0.157749
1.40388
-24.7088
-26.7281
-27.9185
-3.16005
-5.18864
-7.05334
-9.1016
-10.9638
-22.5749
-24.4057
-18.8497
-21.6785
-12.9853
-14.1973
-16.3781
-16.7946
-19.0324
-28.7972
-31.0213
-30.5828
-33.7241
-31.2362
-32.8266
-34.6298
-34.6357
-35.3565
-33.4141
-34.4601
-34.6985
-35.1054
-33.9274
-1.11871
-3.10747
-2.28299
-1.92899
-2.371
-4.07332
-4.97228
-5.35395
-4.07586
-5.21438
-7.91443
-8.15676
-9.57359
-9.04761
-11.9362
-12.1808
-14.3231
-13.2934
-13.2729
-14.0645
-14.2802
-15.3041
-15.6128
-16.3188
-16.736
-17.7507
-18.3077
-18.2103
-17.9851
-18.5704
-18.6867
-18.2531
-19.5211
-19.433
-19.4541
-19.9152
-21.3391
-24.7084
-24.2773
-23.2647
-22.0778
-21.503
-22.9176
-22.5903
-22.054
-25.5422
-25.4141
-27.3682
-26.5035
-27.6506
-27.7717
-27.8897
-27.5877
5.54505
5.92617
6.58788
6.92912
3.64329
3.02111
3.33449
4.3845
4.28736
5.67129
5.39401
5.84862
5.26865
5.54062
4.88572
4.99384
6.48899
6.59587
7.33911
7.29467
8.01568
7.68574
6.15912
4.91996
4.24298
3.41976
4.66158
7.65694
-1.36535
0.293567
2.43255
4.10737
-1.20906
-28.5357
-26.3964
-2.94848
-5.23791
-7.41795
-9.7444
-12.8134
-14.9176
-14.4234
-21.3055
-25.9424
-23.5963
-17.7755
-18.3487
-20.9541
-31.9583
-29.9294
-35.0136
-33.5532
-35.6172
-35.6591
-36.1349
-35.2611
-35.3758
-34.0507
-2.96252
-2.40548
-2.7176
-3.80302
-3.92629
-3.30254
-4.04304
-5.79601
-6.84215
-8.0277
-6.40432
-8.10636
-8.09444
-8.95461
-12.9776
-12.2171
-13.7266
-13.8929
-16.7814
-15.0206
-14.8984
-14.1752
-16.1558
-17.6033
-17.1343
-18.3588
-18.5479
-18.3341
-19.1678
-18.3623
-19.5031
-20.0038
-20.0582
-18.8748
-20.6516
-20.0549
-20.5561
-21.7307
-22.7627
-25.7742
-25.0433
-21.8396
-21.9618
-22.8698
-22.4185
-25.9991
-25.8164
-27.0561
-26.2317
-27.5527
-26.9759
-3.52531
-3.58874
5.33603
5.84434
6.47823
6.94147
7.66249
8.21386
5.93788
5.79362
6.73787
7.81541
8.42558
7.10321
6.82565
7.31702
6.60179
6.98273
8.0879
8.0876
8.91576
8.82678
9.66885
9.11157
9.63959
7.68616
6.27447
6.64079
10.3803
9.56068
1.0332
2.96789
5.68577
7.29124
1.36145
-0.649059
-2.78202
-32.4
-28.6716
-5.73956
-8.77995
-12.133
-14.3886
-18.3178
-19.7524
-23.5043
-27.3035
-30.3522
-25.0647
-37.5796
-35.0792
-38.4073
-38.6897
-39.1003
-37.9407
-38.9881
-38.1467
-4.27681
-4.01064
-5.15775
-5.22633
-6.07636
-5.42245
-6.28773
-7.71784
-8.60531
-9.70966
-8.44383
-9.70337
-13.714
-11.0139
-12.1954
-13.1308
-14.119
-14.0938
-15.2814
-17.5631
-16.062
-17.4388
-15.9001
-18.7132
-18.0499
-20.3128
-18.7523
-19.64
-18.951
-19.1264
-19.014
-20.0071
-20.3987
-20.3516
-20.5183
-20.16
-21.3223
-21.1514
-21.8516
-22.1409
-23.3866
-22.3079
-24.3975
-23.4794
-23.6356
-25.2127
-24.9459
-25.5766
-25.0549
-3.97042
-4.14408
-4.96386
-4.97849
4.89015
5.49043
6.07361
6.64153
7.29463
7.96158
9.50713
8.80874
4.26577
4.88304
10.5939
10.2094
8.37221
8.90456
8.89741
8.56601
9.14972
10.081
9.89304
10.8796
10.6261
11.2717
10.4358
12.0974
12.5938
13.4447
12.5827
9.3583
10.3887
6.29384
4.29323
10.6734
9.10498
5.26707
2.7423
-1.21799
3.62709
-4.13771
-6.85386
-37.5273
-33.8214
-11.1546
-15.6529
-22.5004
-24.3488
-33.4972
-38.4281
-32.7572
-39.8835
-39.998
-41.5341
-40.9907
-42.2728
-40.9682
-5.83085
-6.27405
-6.94052
-7.10052
-8.14716
-7.57122
-9.01274
-9.86176
-10.8741
-11.9164
-10.886
-11.9216
-14.8396
-13.882
-13.1854
-14.1667
-17.7693
-14.9703
-15.3126
-16.9458
-16.4444
-18.2063
-17.5133
-17.8094
-17.8353
-19.3117
-18.8094
-19.9208
-20.107
-19.7047
-19.7788
-19.4937
-19.4577
-20.4437
-20.6129
-20.6805
-21.0172
-20.4462
-20.6883
-20.2853
-21.8183
-21.3307
-23.6017
-22.4457
-24.7864
-23.5306
-21.8657
-25.0678
-24.567
-4.25724
-4.48828
-5.19111
-5.41291
-6.18066
-6.39097
5.38466
6.06901
6.62352
7.36258
10.8175
9.00965
9.97463
8.13242
3.53168
4.12683
4.52406
5.22285
2.71941
3.31006
1.8594
2.42945
12.5973
11.2472
10.8659
11.851
11.1165
11.9133
12.3864
12.061
13.2497
12.4716
12.7778
12.085
11.9002
14.0739
15.0242
15.2646
16.5466
15.9734
13.7485
13.0963
10.053
8.1366
14.4294
13.1018
8.93248
6.54313
-0.305598
-5.19629
6.4896
2.6238
-8.5668
-13.9727
-45.3214
-42.7385
-23.1664
-31.6503
-40.7514
-46.1503
-39.6815
-46.3231
-44.269
-46.366
-46.0284
-7.35162
-8.14408
-10.2967
-10.3698
-9.39642
-9.40759
-11.1463
-12.1638
-13.0789
-13.9288
-13.4561
-14.1669
-16.0169
-15.0048
-14.702
-15.2926
-18.0261
-17.8717
-16.9299
-18.3736
-16.9274
-17.418
-18.6646
-18.9683
-18.2211
-19.4514
-19.4347
-20.6748
-20.2648
-20.2632
-20.1897
-20.1334
-20.758
-20.7205
-20.5489
-20.7322
-20.6256
-20.4034
-21.1897
-20.5758
-21.2681
-23.6345
-21.4561
-21.7796
-25.155
-21.6884
-7.7612
-4.21456
-4.51043
-5.23255
-5.57764
-6.32751
-6.63711
-7.32824
-4.189
-4.47608
-3.99133
-4.3535
-3.6631
-4.06703
0.998564
1.49161
0.141755
0.563995
-0.694077
-0.320567
-1.4457
-1.16776
-3.25915
-3.70247
-2.72579
-3.1921
-2.12866
-1.92298
-2.60498
5.69117
6.54522
7.177
8.15215
10.0899
11.0174
8.97661
3.60223
4.29564
4.6724
5.43293
2.59032
3.24895
1.52254
2.12704
10.8838
13.5837
14.9974
13.7219
14.221
13.8405
15.394
14.7647
15.8217
14.9597
13.1394
13.3417
11.8663
16.4356
16.8005
17.1467
18.4917
18.3631
20.0882
20.0897
17.7351
17.2864
14.4117
12.3519
18.9317
17.598
12.6624
9.82003
-10.4941
-1.30354
-8.94236
8.40026
2.91895
-20.4242
-24.7389
-47.7605
-50.1514
-35.4767
-65.8313
-55.7548
-54.1336
-46.7732
-8.80705
-9.57546
-11.7084
-11.897
-12.0021
-10.7206
-11.4641
-13.5264
-13.9994
-15.106
-15.3914
-15.0097
-15.9808
-15.6792
-16.3762
-17.1851
-16.2455
-19.42
-18.8717
-17.726
-18.083
-18.8907
-18.5403
-19.5044
-19.4518
-20.3932
-20.4021
-20.5687
-20.466
-20.9442
-20.9303
-20.8476
-21.157
-20.8844
-20.9683
-20.937
-20.6369
-21.0528
-20.6387
-20.4846
-24.777
-20.7042
-9.1099
-7.5862
-8.39555
-5.12873
-5.53834
-6.25264
-6.64505
-7.31572
-4.90285
-5.30057
-4.61882
-5.0643
-4.20755
-4.68227
0.489454
1.00502
-0.482394
-0.0625836
-1.43919
-1.06305
-2.23661
-2.01506
-3.65992
-4.17285
-3.00684
-2.78991
-3.55179
5.86811
6.89351
7.45151
8.72755
9.54487
3.47547
4.25447
4.5195
5.42375
2.1933
2.91329
0.8793
1.54798
8.93552
11.2156
9.77279
17.2364
16.9883
16.4397
18.2464
17.4556
18.0388
15.9698
14.3262
14.0938
12.2693
20.2391
18.9336
19.0956
21.9472
21.8805
23.9626
24.0665
22.1802
22.3312
19.1448
17.1161
24.1596
22.6564
17.4529
13.8752
-13.1375
-21.6843
-2.22626
-12.0528
11.0921
3.37543
-28.8269
-30.5553
-40.304
-87.8675
-80.1547
-10.0525
-10.692
-11.6292
-12.718
-13.4424
-13.2103
-13.2476
-12.6695
-16.0353
-16.6197
-17.2019
-17.2174
-16.4503
-17.7426
-17.054
-17.8953
-18.2173
-18.5575
-18.2498
-18.0679
-19.7461
-19.4148
-18.8836
-19.0875
-19.7518
-19.4565
-20.1533
-20.4306
-20.6381
-20.6596
-21.165
-20.9996
-21.0334
-21.1531
-21.3868
-21.3457
-21.3934
-21.3204
-19.9982
-21.58
-20.8179
-30.1339
-9.04745
-9.8987
-7.73481
-8.62932
-5.97601
-6.4454
-7.29744
-5.77364
-6.2885
-5.31463
-5.89614
-4.68305
-5.26961
-0.257849
0.222575
-1.33397
-0.915055
-2.38986
-2.01933
-3.22032
-3.03728
-4.0261
-3.85302
-4.61284
5.76935
7.01027
7.63955
7.18766
3.00179
3.87627
4.05394
5.09662
1.49414
2.27754
0.00862968
0.79312
9.2847
7.83813
11.5988
10.0772
17.4564
17.4204
21.0629
20.3146
19.6513
18.7252
21.3887
21.0686
12.4125
16.8138
15.2355
14.1272
23.373
23.2515
25.8058
25.5257
27.0521
27.9145
26.5239
28.0088
24.0413
22.3437
28.7618
27.5362
23.6712
19.7554
21.5324
-18.779
-28.5261
13.9875
-6.03695
-17.6512
-32.2187
-28.1797
-13.8481
-10.2192
-11.0415
-11.7351
-12.7223
-13.6016
-15.9018
-14.4747
-15.3587
-17.6909
-17.2425
-18.7453
-18.8114
-17.2592
-18.574
-19.0898
-19.2035
-19.3583
-18.9387
-19.2455
-19.4979
-19.3933
-19.3508
-20.2201
-20.0213
-19.7596
-19.8378
-20.1572
-21.043
-20.573
-20.7598
-21.0884
-21.1039
-21.2532
-21.2467
-21.0516
-21.1677
-21.8488
-21.1479
-9.10103
-9.82005
-7.20075
-7.74243
-8.64118
-6.60082
-7.24067
-5.91623
-6.57405
-5.18364
-5.85611
-1.20477
-0.72649
-2.43455
-1.98777
-3.5442
-3.2408
-4.37092
-4.22935
-5.05849
7.10239
5.32589
6.20903
5.82487
2.31046
3.1955
4.16581
3.38042
0.711037
1.52742
-1.00031
-0.215612
9.06476
7.08107
5.74332
11.3875
9.63677
17.911
20.6844
19.5883
20.454
24.9444
23.5885
24.7825
22.6669
22.9423
14.9511
12.4473
17.6584
16.3056
19.251
27.6079
27.1382
30.8551
33.3042
30.3959
31.1672
31.771
32.4663
33.4393
28.7622
29.7275
29.8657
25.4837
27.054
25.7192
21.2168
-21.4998
-39.5086
-36.0764
-15.8454
-10.2841
-14.3958
-14.8913
-11.31
-11.5981
-12.4494
-12.9869
-13.6787
-14.3195
-16.1863
-15.9634
-17.5494
-17.2568
-19.756
-19.7998
-18.7279
-18.967
-20.1952
-20.0095
-19.3674
-19.3429
-20.006
-20.0898
-20.1311
-20.6596
-20.5194
-20.3399
-20.5576
-20.9216
-20.7986
-21.0972
-21.0329
-20.9977
-20.9738
-21.0169
-21.0554
-10.2852
-8.01152
-8.60411
-9.36523
-9.66933
-7.30901
-8.02779
-6.50912
-7.21339
-5.65188