/*--------------------------------*- C++ -*----------------------------------*\
  =========                 |
  \\      /  F ield         | OpenFOAM: The Open Source CFD Toolbox
   \\    /   O peration     | Website:  https://openfoam.org
    \\  /    A nd           | Version:  8
     \\/     M anipulation  |
\*---------------------------------------------------------------------------*/
FoamFile
{
    version     2.0;
    format      ascii;
    class       volScalarField;
    location    "0.075";
    object      p;
}
// * * * * * * * * * * * * * * * * * * * * * * * * * * * * * * * * * * * * * //

dimensions      [0 2 -2 0 0 0 0];

internalField   nonuniform List<scalar> 
656
(
4.395e-07
-0.235415
1.7286
-0.786698
0.189109
1.73124
-1.15106
-1.55284
2.05501
1.70641
1.76606
-0.438536
0.38613
1.74772
2.03451
2.25921
1.63659
1.58731
2.26849
2.3914
1.8021
1.82117
1.78639
1.8179
-0.0678274
0.616182
1.77439
2.01726
2.25045
1.84381
1.86661
2.55673
2.39637
2.38639
2.55445
2.69
2.15653
2.17262
2.13722
1.78223
1.85334
0.28047
0.818514
1.80945
2.00693
2.24338
2.18686
2.19942
2.86032
2.69083
2.55899
2.38212
2.55204
2.68875
2.86081
3.02749
2.16146
2.17584
2.18739
2.12037
2.14579
1.82908
2.00077
2.23605
2.19767
2.20649
3.02631
2.8584
2.69131
3.34492
2.37751
2.54909
2.68637
2.8597
3.02736
2.1827
2.19277
2.19459
2.1941
1.9896
2.22567
2.19339
2.19285
3.61244
3.34061
3.02252
2.85603
3.34545
3.56245
4.81659
2.3692
2.54658
2.68237
2.85995
3.0287
2.09324
2.0887
2.09003
2.0922
2.09409
2.09545
5.39497
5.07755
3.65358
3.3284
3.01717
3.3516
3.52784
4.58586
5.00428
2.11805
2.10181
2.09349
2.08716
2.08103
2.07559
3.46393
5.83363
5.30378
3.68493
3.31173
3.39808
2.13834
2.12599
2.11484
2.10557
2.09738
2.0902
3.53792
3.5492
6.25266
5.51765
3.70233
3.53239
2.22631
2.21166
2.19909
2.18874
2.17965
2.17173
3.18936
3.54078
3.65147
6.69745
5.77317
3.19318
2.32621
2.31368
2.30162
2.29132
2.28243
2.27494
3.12262
3.18754
3.53833
3.76316
7.19328
3.13344
3.07483
2.40768
2.40831
2.40208
2.39077
2.37919
2.36943
3.06622
3.1126
3.18554
3.52848
3.85139
3.07009
2.4713
2.50098
2.49432
2.47743
3.06513
3.05742
3.10332
3.1814
3.51424
3.07077
3.18825
2.31758
2.30549
3.08445
3.06813
3.05917
3.04996
3.09339
3.17533
3.15791
3.19271
3.21533
3.09291
3.08365
3.06482
3.05428
3.04294
3.08388
3.1369
3.15956
3.19727
3.21654
3.3399
3.09804
3.09265
3.08252
3.06245
3.04997
3.0366
3.12372
3.1369
3.1602
3.20039
3.22879
3.38698
3.10058
3.0984
3.09283
3.08204
3.06056
3.04621
3.11591
3.12323
3.1365
3.16005
3.20224
3.23965
3.09868
3.10082
3.09882
3.09311
3.08183
3.05898
3.11153
3.11516
3.12249
3.13576
3.15965
3.20312
3.10102
3.09839
3.10099
3.09926
3.09352
3.08169
3.11425
3.11115
3.11439
3.12171
3.13495
3.15925
3.1035
3.10074
3.09829
3.10109
3.0997
3.09389
3.1075
3.1104
3.11456
3.11085
3.11371
3.12095
3.1343
3.10335
3.10045
3.09825
3.10116
3.10012
3.10759
3.11077
3.11469
3.11069
3.1131
3.12033
3.10321
3.10019
3.09824
3.10122
3.10767
3.11111
3.11475
3.1106
3.11254
3.10308
3.09995
3.09823
3.10775
3.11142
3.11478
3.11051
3.10296
3.09974
3.10782
3.1117
3.11481
3.10285
3.10787
3.11195
0.611872
0.921024
2.1209
2.05031
1.83001
1.80102
1.83257
1.36903
1.47457
1.26355
1.80882
1.85002
2.14478
2.14368
2.16541
2.16155
2.10571
2.08036
2.01317
1.95876
1.74479
1.56626
1.91247
1.84332
1.99339
1.99089
1.88165
2.10612
2.1079
2.14098
2.15624
2.16324
2.12634
2.0812
2.09202
2.00125
1.94344
2.13243
2.226
2.11442
2.36213
2.27295
2.13648
2.07567
4.46956
4.70425
3.3263
2.5499
2.45666
3.17347
3.02227
2.68281
2.64617
2.96513
2.8655
2.80924
2.14182
2.11386
2.12914
2.17199
2.22535
2.21785
2.2087
2.20969
2.26271
2.16366
2.45114
2.39418
2.28199
2.29788
3.9684
3.53519
3.45027
3.98475
3.79614
3.42527
3.28035
3.30992
3.16904
2.6205
2.52744
3.08313
2.97607
2.88834
2.81516
2.74295
2.1456
2.16418
2.19143
2.24985
2.27615
2.34397
2.3688
2.56627
2.41773
2.36461
2.65328
2.48409
2.42296
3.6696
3.53954
3.48914
3.52739
3.44772
3.36962
3.22759
3.17437
3.05135
2.96041
2.87874
2.73929
2.70054
2.23575
2.25167
2.27587
2.36655
2.38523
2.43631
2.47434
2.58764
2.53956
2.80857
2.7329
2.59624
2.54055
3.18401
3.31863
3.32911
3.35971
3.27919
3.20678
3.11484
3.03135
2.89168
2.97755
2.91227
2.33683
2.55176
2.37801
2.39064
2.4392
2.45233
2.51736
2.85222
2.69173
2.73482
2.88256
2.597
2.70576
2.67984
2.88288
3.12801
3.15297
3.00083
2.96645
3.08548
3.03096
3.19325
3.24013
3.21769
3.00976
2.98404
3.17392
3.02778
3.04245
2.42675
2.61961
2.53562
2.59432
2.47581
2.47891
2.51114
2.74683
2.81498
2.86857
2.92058
2.6782
2.75336
2.70903
2.91802
2.97932
3.03652
3.03243
3.09736
3.14435
3.12458
3.06825
3.06562
3.07228
3.05993
3.08176
3.12734
3.05154
3.07592
3.03792
3.07595
3.07691
3.09098
3.0734
3.06652
3.07113
2.55991
2.45319
2.52475
2.63813
2.65749
2.53149
2.54417
2.63085
2.94428
2.79783
2.83859
2.67712
2.79816
2.98255
2.96402
3.0415
3.07032
3.09723
3.14039
3.14496
3.20288
3.22706
3.2275
3.19778
3.16943
3.18968
3.14316
3.20323
3.18235
3.18556
3.14437
3.11849
3.1076
3.05705
3.09835
3.10035
3.12571
3.09695
3.07061
3.06113
3.06646
3.06333
3.06714
3.09311
3.23881
2.44958
2.33453
2.41668
2.56384
2.59294
2.67015
2.8404
2.82917
2.86794
3.11052
3.00034
3.00884
3.27081
3.16377
3.14121
3.30527
3.27938
3.36818
3.16557
3.1342
3.16563
3.15392
3.15737
3.08086
3.08245
3.13236
3.10819
3.11379
3.08886
3.06201
3.09259
3.09859
3.0873
3.09074
3.10224
3.37947
3.18474
3.06706
3.0238
3.02726
2.98073
2.77733
3.02487
3.32124
3.09143
3.09109
3.14634
3.13236
3.13897
3.12843
3.13779
3.09343
3.09131
3.12694
3.11505
3.10228
3.09168
3.10297
3.08922
3.54242
3.09772
3.09764
3.09743
3.09848
3.09951
3.10038
3.12717
3.11437
3.12569
3.12352
3.12479
3.09822
3.10539
3.10044
3.11335
3.11555
3.09937
3.10183
3.10022
3.10049
3.09944
3.10026
3.11776
3.11477
3.1162
3.11661
3.11622
3.10235
3.10477
3.10815
3.10972
3.11285
3.11174
3.10186
3.10302
3.10119
3.10178
3.11238
3.11226
3.1104
3.10534
3.10966
3.10719
3.11344
3.1121
3.10365
3.10516
3.10735
3.10992
3.10955
)
;

boundaryField
{
    movingWall
    {
        type            zeroGradient;
    }
    fixedWalls
    {
        type            zeroGradient;
    }
    frontAndBack
    {
        type            empty;
    }
    defaultFaces
    {
        type            empty;
    }
}


// ************************************************************************* //
