/*--------------------------------*- C++ -*----------------------------------*\
  =========                 |
  \\      /  F ield         | OpenFOAM: The Open Source CFD Toolbox
   \\    /   O peration     | Website:  https://openfoam.org
    \\  /    A nd           | Version:  8
     \\/     M anipulation  |
\*---------------------------------------------------------------------------*/
FoamFile
{
    version     2.0;
    format      ascii;
    class       volScalarField;
    location    "0.025";
    object      p;
}
// * * * * * * * * * * * * * * * * * * * * * * * * * * * * * * * * * * * * * //

dimensions      [0 2 -2 0 0 0 0];

internalField   nonuniform List<scalar> 
424
(
5.0358e-06
0.0558306
0.013574
0.115569
0.096139
0.247657
0.0999503
0.0516846
0.277386
0.494905
0.475408
0.488082
0.00857114
-0.152624
0.507461
0.749147
0.506999
0.512566
-0.422693
-0.186003
0.748537
1.00184
0.671947
0.672653
-0.674956
-0.437361
-0.378677
-0.393839
0.987745
1.26793
1.47277
1.536
0.849784
0.847876
-3.52193
-0.889794
-1.11141
-1.38764
-0.677672
-0.412391
-0.41746
1.23403
1.42696
1.5232
1.41561
1.00703
1.00467
-2.88815
-2.65396
-0.888052
-1.12259
-1.17986
-0.57735
-0.578542
1.43296
1.47173
1.02802
1.02428
-2.27204
-1.1304
-0.760611
-0.758319
1.51862
1.67543
-1.05501
-0.62384
-0.947968
-0.946998
1.92473
1.70857
-0.0218656
-0.600928
-1.01634
-1.04057
2.18088
1.93716
1.89495
1.90791
0.72699
0.00728072
4.37518
2.40323
1.47249
2.10413
2.68262
5.25196
2.88242
2.61549
2.17867
1.94156
1.94719
0.732388
-0.385439
3.94709
2.39653
1.45806
2.08164
2.56899
4.53367
2.63895
2.62562
2.10405
2.10479
-0.163169
-0.411211
2.29222
2.28979
0.392218
-0.16352
2.48791
2.49259
0.977781
0.391656
2.57702
2.60785
1.55882
0.976739
1.81814
1.55389
1.83622
0.130487
0.0399876
0.0478057
0.0768765
0.0933024
0.165209
-0.0278333
0.0101707
0.223238
0.316198
0.331521
0.151114
0.176702
0.217942
0.334726
0.302816
0.294304
0.443665
0.458419
0.444916
0.0632377
-0.000626537
0.0690181
0.0356132
-0.0175437
-0.0629682
-0.0416138
-0.160664
-0.0822944
-0.188491
-0.000388412
0.0447324
0.0698017
0.114659
0.303442
0.169853
0.362829
0.352969
0.488863
0.510638
0.582741
0.51204
0.59803
-0.0333272
-0.0352602
-0.186046
-0.204159
-0.232513
-0.266385
-0.271689
-0.0494076
-0.280604
-0.0950788
-0.231088
0.642203
0.638287
0.750373
0.78276
0.678214
0.78381
-0.294573
-0.2826
-0.4398
-0.338973
-0.401155
-0.379093
-0.348995
0.885352
0.884889
0.98534
0.958476
1.05278
0.853422
0.943871
-0.547233
-0.673097
-0.503689
-0.555334
-0.41981
-0.515362
1.13505
1.14985
1.20708
1.21666
1.27416
1.22116
1.10972
1.18348
1.00512
1.0831
-0.789944
-0.884501
-0.697016
-0.778154
-0.58346
-0.701237
1.32542
1.30412
1.31695
1.35517
1.40009
1.38362
1.38033
1.38537
1.39009
1.49535
1.4986
1.44959
1.18592
1.27163
1.04089
1.18651
1.35416
1.38477
1.45404
-1.26577
-1.65521
-2.50265
-2.09063
-1.01912
-1.11773
-1.23125
-1.01922
-0.869938
-0.937605
-0.765308
-0.871553
-1.14756
-1.2563
1.50102
1.44695
1.45771
1.45205
1.5167
1.45695
1.46852
1.51786
1.56213
1.5878
1.68557
1.34035
1.43484
1.51244
1.49474
1.14178
1.26438
-1.48893
-1.42011
-1.63795
-1.23479
-1.08242
-1.1052
-1.15046
-1.00848
-1.07232
-0.944257
-1.02136
-0.855818
-1.19608
-1.10175
-1.07465
-1.11885
-1.22232
1.56574
1.62202
1.69751
1.55647
1.73448
1.72949
1.76041
1.78372
1.56464
1.77171
1.6117
1.73554
-0.821331
-0.724604
-0.944141
-0.595714
-0.698984
-0.564894
-1.09827
-1.10698
-0.746593
-0.757084
-1.02657
-1.129
-1.0388
-1.07809
-1.24246
-1.173
-1.05265
-0.753911
1.77533
1.78917
1.9401
1.86711
1.91149
1.88298
1.87127
-0.396808
-0.400444
0.0261209
-0.357487
-0.0576632
-0.410886
-0.34549
-1.40169
-1.31459
-1.08401
-1.21605
-1.15846
-1.51412
-1.48748
-1.1989
2.06602
2.18107
2.01419
2.06406
1.94528
2.02869
0.310523
0.736829
0.0735615
0.326308
-0.160789
0.144585
-1.13282
3.71294
4.06436
2.3127
2.392
2.18834
2.3102
2.11036
2.20059
1.14499
1.4508
0.804808
1.13574
0.416413
0.791304
2.57705
3.13307
2.53344
2.62014
1.88783
2.07458
2.37346
2.73656
3.00923
2.74685
3.21545
2.64824
2.52289
2.40038
2.47243
2.29127
2.39266
1.90288
1.43811
1.52709
0.980075
1.35367
2.2825
2.92024
2.65889
2.62007
2.17712
2.20357
2.79727
2.67811
2.70028
2.67859
2.58125
2.596
2.47891
2.58898
1.78935
2.0358
1.5675
1.76987
2.3953
2.65327
2.62706
2.64338
2.15574
2.35777
2.76746
2.63239
2.67485
2.59558
2.66979
1.84122
2.12023
2.62564
2.97574
2.8858
2.52991
2.56579
3.09661
3.05759
2.63568
2.55425
)
;

boundaryField
{
    movingWall
    {
        type            zeroGradient;
    }
    fixedWalls
    {
        type            zeroGradient;
    }
    frontAndBack
    {
        type            empty;
    }
    defaultFaces
    {
        type            empty;
    }
}


// ************************************************************************* //
