/*--------------------------------*- C++ -*----------------------------------*\
  =========                 |
  \\      /  F ield         | OpenFOAM: The Open Source CFD Toolbox
   \\    /   O peration     | Website:  https://openfoam.org
    \\  /    A nd           | Version:  8
     \\/     M anipulation  |
\*---------------------------------------------------------------------------*/
FoamFile
{
    version     2.0;
    format      ascii;
    class       volScalarField;
    location    "0.025";
    object      p;
}
// * * * * * * * * * * * * * * * * * * * * * * * * * * * * * * * * * * * * * //

dimensions      [0 2 -2 0 0 0 0];

internalField   nonuniform List<scalar> 
656
(
7.04764e-08
-0.235374
1.72704
-0.785589
0.189047
1.72975
-1.15002
-1.55185
2.05208
1.70876
1.76839
-0.437311
0.385997
1.74631
2.0318
2.2567
1.63891
1.58964
2.26567
2.39059
1.80523
1.8243
1.78953
1.82026
-0.0664506
0.616032
1.77307
2.01479
2.24829
1.84694
1.86976
2.55898
2.39524
2.38596
2.557
2.6961
2.16014
2.17622
2.14086
1.78536
1.85564
0.281896
0.818445
1.80833
2.00472
2.24165
2.19043
2.20296
2.86977
2.69684
2.561
2.38214
2.55493
2.69495
2.87012
3.0386
2.166
2.18038
2.19194
2.12406
2.15042
1.82839
1.99897
2.23487
2.20221
2.21103
3.03775
2.868
2.69726
3.35626
2.3781
2.55239
2.69273
2.86887
3.03809
2.1882
2.19829
2.20021
2.19979
1.98831
2.22502
2.19912
2.19861
3.62019
3.35222
3.03428
2.86575
3.35646
3.56995
4.82459
2.37048
2.55043
2.68889
2.86897
3.03902
2.09963
2.09508
2.09631
2.0984
2.10021
2.10152
5.39788
5.08549
3.66151
3.34027
3.02922
3.36227
3.53462
4.59353
5.00763
2.12584
2.10976
2.10143
2.09505
2.08888
2.08342
3.46734
5.83655
5.31162
3.69305
3.32385
3.40232
2.14812
2.13596
2.12491
2.1157
2.10756
2.10041
3.54157
3.55245
6.25569
5.52542
3.71062
3.53641
2.2378
2.22344
2.21111
2.20092
2.19194
2.18416
3.19418
3.54428
3.65407
6.70057
5.78091
3.19793
2.33868
2.32664
2.31495
2.30492
2.29627
2.28898
3.12869
3.1925
3.54165
3.76589
7.19642
3.13901
3.08047
2.42113
2.42196
2.41617
2.40536
2.39424
2.38484
3.07245
3.11907
3.19053
3.5316
3.85388
3.07478
2.48569
2.51454
2.50853
2.49257
3.07024
3.06413
3.11007
3.18638
3.51715
3.07409
3.18059
2.34183
2.33117
3.08603
3.07163
3.06466
3.05706
3.10039
3.1803
3.1525
3.18468
3.20532
3.09301
3.0852
3.06852
3.06007
3.05038
3.0911
3.13392
3.15413
3.1889
3.20637
3.32252
3.0979
3.09275
3.08409
3.06629
3.05602
3.04435
3.12217
3.13404
3.15475
3.19181
3.21782
3.36706
3.10013
3.09813
3.09271
3.08357
3.06451
3.05249
3.11501
3.12161
3.13372
3.15463
3.19355
3.22801
3.09896
3.1003
3.09845
3.093
3.0833
3.06301
3.11101
3.1144
3.12101
3.13308
3.15427
3.19437
3.101
3.09872
3.10045
3.09881
3.0933
3.08311
3.1129
3.1107
3.11376
3.12036
3.13238
3.15393
3.10331
3.10079
3.0986
3.10055
3.09917
3.09356
3.10681
3.10948
3.11317
3.11043
3.11319
3.11972
3.13182
3.10319
3.10055
3.09855
3.10062
3.09953
3.10688
3.10977
3.11331
3.11027
3.11267
3.1192
3.10307
3.10034
3.09852
3.10069
3.10695
3.11004
3.11338
3.11016
3.1122
3.10297
3.10015
3.0985
3.107
3.1103
3.11342
3.11008
3.10287
3.09998
3.10706
3.11053
3.11346
3.10278
3.1071
3.11074
0.612986
0.920842
2.1247
2.05356
1.8331
1.80401
1.8345
1.37077
1.47506
1.26342
1.80811
1.85275
2.14966
2.14797
2.17105
2.16659
2.11097
2.0849
2.01669
1.96167
1.74643
1.56703
1.91288
1.84263
1.99218
1.9933
1.88482
2.11251
2.11459
2.14677
2.16115
2.16909
2.13139
2.08682
2.09641
2.00287
1.94483
2.13336
2.22517
2.11337
2.36364
2.27369
2.14036
2.07998
4.47631
4.70835
3.33732
2.55422
2.45819
3.18542
3.03273
2.68925
2.65193
2.97582
2.87445
2.81801
2.14939
2.1221
2.13675
2.18037
2.23224
2.22554
2.21502
2.21213
2.26699
2.16673
2.45367
2.39614
2.28806
2.30387
3.97616
3.54102
3.45722
3.98965
3.8033
3.43083
3.28149
3.32286
3.17911
2.62881
2.53403
3.09212
2.98546
2.89747
2.82394
2.75078
2.15541
2.17436
2.20022
2.25944
2.28443
2.35312
2.3759
2.57122
2.42363
2.3702
2.65931
2.49023
2.43089
3.67505
3.54446
3.49405
3.53106
3.4536
3.37657
3.23695
3.18036
3.0613
2.96992
2.88804
2.74868
2.70875
2.24719
2.26344
2.28644
2.37744
2.39465
2.44599
2.48186
2.59698
2.54844
2.81485
2.74017
2.60331
2.54921
3.18955
3.32313
3.33489
3.36551
3.28621
3.21096
3.12136
3.04074
2.89768
2.98659
2.91891
2.34898
2.56035
2.39093
2.40255
2.45099
2.46245
2.52735
2.85768
2.69853
2.74128
2.88724
2.60466
2.71316
2.68778
2.88575
3.13364
3.15804
3.00114
2.96731
3.08215
3.02986
3.19711
3.24469
3.22149
3.01108
2.98649
3.17865
3.03246
3.04592
2.43967
2.62857
2.5463
2.6036
2.48872
2.49082
2.52318
2.75233
2.82013
2.8723
2.92256
2.68641
2.75915
2.71578
2.92007
2.97945
3.03461
3.03075
3.09281
3.13832
3.11921
3.06614
3.06428
3.07777
3.06733
3.08745
3.13339
3.05136
3.07452
3.03849
3.08068
3.07797
3.0959
3.07642
3.0711
3.07652
2.57139
2.46887
2.53783
2.64783
2.66634
2.54489
2.55643
2.64095
2.94511
2.80289
2.84268
2.68583
2.80372
2.9823
2.96421
3.03814
3.06648
3.09209
3.13366
3.1381
3.19334
3.21617
3.2166
3.18861
3.16156
3.18122
3.13726
3.19387
3.1745
3.17804
3.13888
3.11465
3.10498
3.05682
3.10084
3.10451
3.1292
3.09601
3.07447
3.06321
3.07004
3.06753
3.0708
3.09567
3.22736
2.46844
2.35884
2.43795
2.57905
2.6065
2.68026
2.8448
2.83304
2.87034
3.10478
2.99877
3.00701
3.25718
3.15532
3.1342
3.28988
3.26512
3.34937
3.15909
3.12975
3.15955
3.1486
3.15177
3.08293
3.08428
3.12839
3.10567
3.11162
3.08843
3.06551
3.09365
3.09868
3.08872
3.0921
3.1025
3.36008
3.17645
3.06338
3.02172
3.02488
2.97995
2.78914
3.02446
3.30658
3.09154
3.09145
3.14125
3.12862
3.13591
3.12647
3.13445
3.0938
3.0924
3.12413
3.11317
3.10168
3.09275
3.10315
3.0897
3.51663
3.09765
3.09759
3.09742
3.09836
3.09924
3.09997
3.12486
3.11314
3.12373
3.12133
3.12285
3.09804
3.10488
3.10026
3.11204
3.11426
3.09945
3.10217
3.1
3.10049
3.09948
3.10028
3.11643
3.11365
3.1152
3.11563
3.115
3.10181
3.10464
3.10804
3.10854
3.11215
3.11119
3.10155
3.10266
3.10106
3.1017
3.11151
3.11154
3.10979
3.10491
3.10883
3.10657
3.11228
3.11106
3.1034
3.1048
3.10673
3.10918
3.10863
)
;

boundaryField
{
    movingWall
    {
        type            zeroGradient;
    }
    fixedWalls
    {
        type            zeroGradient;
    }
    frontAndBack
    {
        type            empty;
    }
    defaultFaces
    {
        type            empty;
    }
}


// ************************************************************************* //
