/*--------------------------------*- C++ -*----------------------------------*\
  =========                 |
  \\      /  F ield         | OpenFOAM: The Open Source CFD Toolbox
   \\    /   O peration     | Website:  https://openfoam.org
    \\  /    A nd           | Version:  8
     \\/     M anipulation  |
\*---------------------------------------------------------------------------*/
FoamFile
{
    version     2.0;
    format      ascii;
    class       volVectorField;
    location    "0.025";
    object      U;
}
// * * * * * * * * * * * * * * * * * * * * * * * * * * * * * * * * * * * * * //

dimensions      [0 1 -1 0 0 0 0];

internalField   nonuniform List<vector> 
424
(
(-0.00290805 -0.000178768 6.81069e-26)
(-0.0143901 0.00095223 0)
(-0.0129056 0.00272851 2.05453e-23)
(0.000167342 0.00311669 -1.14054e-24)
(-0.0464093 0.00505632 -2.48598e-23)
(-0.0226239 0.000835469 -3.38515e-23)
(-0.00294986 0.0136117 3.15763e-24)
(-0.000984999 0.0152168 -7.22279e-25)
(-0.06735 0.00255781 -3.6095e-23)
(-0.0253151 0.000295549 3.10732e-23)
(-0.0690566 0.00223388 9.56752e-23)
(-0.0236422 0.000454378 0)
(-0.00510443 0.0492886 1.20333e-24)
(-0.000951799 0.0240198 0)
(-0.0729943 0.000563248 3.2993e-23)
(-0.0251408 -4.11127e-05 1.7498e-23)
(-0.0579893 0.000677851 0)
(-0.019332 7.69482e-05 0)
(-0.000340636 0.0266259 0)
(-0.00263943 0.0717339 -2.79709e-23)
(-0.071991 4.27375e-05 3.49268e-23)
(-0.0253519 -0.000337774 -1.87406e-23)
(-0.0562832 0.000234928 0)
(-0.0193149 5.57871e-05 0)
(1.30239e-05 0.0255935 1.30847e-23)
(-0.000187392 0.0765773 2.52413e-23)
(-0.00228586 0.0672799 -3.72479e-23)
(-0.000407917 0.0229559 -3.86591e-23)
(-0.073583 -0.000336593 5.87971e-23)
(-0.0227986 -0.000837492 0)
(-0.0147597 -0.000958429 -1.31429e-22)
(-0.00301251 0.000203501 0)
(-0.0520987 -1.77388e-05 -1.05637e-22)
(-0.0177591 3.8433e-05 9.87817e-23)
(-0.0222654 0.0479202 6.83905e-23)
(0.000238754 0.0263152 0)
(0.000136209 0.0291332 -2.26911e-22)
(0.00335757 0.0628818 2.33759e-22)
(8.13611e-05 0.0732219 2.79798e-23)
(-0.000416812 0.0590533 3.92249e-24)
(-7.81694e-06 0.0196842 -3.85014e-24)
(-0.0685443 -0.00252769 -1.05329e-22)
(-0.0480012 -0.00538724 1.33244e-22)
(-0.0138947 -0.00305456 0)
(0.000208436 -0.0033323 -2.95653e-22)
(-0.0486056 -0.000263572 3.47078e-22)
(-0.0159635 -3.31656e-05 0)
(-0.106098 0.15251 -1.89097e-22)
(0.809187 0.0278549 -5.02488e-23)
(-0.000689272 0.076628 -1.62361e-23)
(-0.0057801 0.0851792 0)
(-0.00514193 0.16588 -3.61477e-24)
(-0.000241048 0.0569133 0)
(-4.40771e-05 0.0195977 0)
(-0.00394048 -0.0149633 5.94474e-23)
(-0.00124234 -0.016761 2.58563e-22)
(-0.0522284 -0.000617711 0)
(-0.0172125 -0.000151657 0)
(0.405459 0.118679 1.41668e-22)
(0.861097 -0.00378959 -1.19588e-23)
(0.000143037 0.0535199 -9.28616e-23)
(-9.0408e-06 0.0184311 8.80227e-23)
(-0.00658901 -0.0533222 0)
(-0.00102899 -0.0263088 0)
(0.550432 0.0128283 1.56966e-22)
(0.882251 -0.0021453 0)
(0.000397034 0.0507323 -7.98987e-23)
(9.71617e-05 0.0172129 7.35257e-23)
(-0.000333211 -0.0287769 6.02436e-23)
(-0.00294275 -0.0773921 -1.85894e-23)
(0.880221 -0.00128709 -1.37764e-23)
(0.624821 0.00203212 -1.16185e-22)
(-0.00230338 0.0548916 0)
(-0.000210426 0.0206844 0)
(7.75887e-05 -0.0283741 4.72585e-23)
(-0.000370032 -0.0818276 1.90978e-23)
(-0.00185633 -0.0647144 -3.96522e-22)
(-0.000334999 -0.0220656 0)
(0.878633 -0.000317534 1.30148e-23)
(0.635414 -0.000757485 -4.93899e-23)
(0.826628 -0.0267603 0)
(0.000336179 -0.0282907 -9.09625e-23)
(0.881284 0.00140777 0)
(0.886259 0.00204679 0)
(0.865553 0.00377182 0)
(-0.0195108 -0.0490689 0)
(0.00356236 -0.0679789 -4.80294e-22)
(0.000163996 -0.0303246 5.95098e-22)
(0.000291213 -0.0805433 4.36405e-23)
(-0.000547828 -0.056689 0)
(-3.60421e-05 -0.0189328 0)
(0.63767 -0.000728063 -2.08193e-23)
(-0.105855 0.00184995 -4.19655e-23)
(0.447295 -0.115153 9.64548e-22)
(-0.000505637 -0.0822591 -8.90928e-23)
(0.640076 0.00130884 -1.23668e-22)
(0.641683 -0.0013678 2.57244e-22)
(0.569013 -0.0107685 -1.24166e-21)
(-0.108469 -0.153719 -1.8079e-22)
(-0.00650777 -0.178237 7.00475e-22)
(-0.006578 -0.0888545 -5.68725e-22)
(5.36198e-05 -0.0563025 -3.09583e-23)
(3.45812e-05 -0.0193735 3.00232e-23)
(-0.0942276 4.86795e-05 0)
(-0.0408479 -4.99228e-05 -4.08335e-23)
(0.000383622 -0.0583631 -1.38369e-22)
(6.02271e-05 -0.020159 -1.31557e-22)
(-0.096595 -0.000320953 2.3967e-23)
(-0.0341727 3.87755e-06 0)
(-6.22538e-05 -0.0569875 9.95293e-23)
(8.55576e-05 -0.0196466 -9.48826e-23)
(-0.0902428 -0.000141334 -2.48451e-22)
(-0.0354889 -0.000111972 -2.26935e-23)
(-0.0030257 -0.0595045 0)
(-0.000229369 -0.0231647 0)
(-0.083253 0.000307887 1.3579e-22)
(-0.03296 -6.73025e-05 0)
(-0.0944937 -0.00159945 0)
(-0.0297048 -7.50874e-06 1.21465e-22)
(-0.0353776 -0.000108875 0)
(-0.077995 0.0167114 2.51485e-24)
(-0.0232118 0.0115855 0)
(-0.0622831 0.0344373 0)
(-0.0118797 0.0243953 -1.80412e-24)
(-0.127123 0.104782 2.66704e-23)
(-0.154185 0.0725522 4.7458e-22)
(-0.084621 0.133272 3.6189e-23)
(-0.105237 0.114191 -1.29379e-23)
(-0.151201 0.0612258 -7.98627e-22)
(-0.155885 0.0365553 -2.62349e-23)
(-0.133744 0.0279674 -7.16624e-22)
(-0.120092 0.0281879 -1.92286e-22)
(-0.142991 0.0466522 -6.39031e-22)
(-0.162347 0.0500481 8.3434e-22)
(-0.169241 0.0238431 -5.97729e-22)
(-0.176342 0.0263268 1.0771e-22)
(-0.109575 0.00655657 1.81052e-22)
(-0.161586 0.00724407 1.23979e-21)
(-0.1073 0.00538467 2.61113e-22)
(-0.133302 0.00288634 3.38859e-22)
(-0.0359296 0.0630902 2.90765e-23)
(-0.101271 0.110632 0)
(-0.0701141 0.0664697 -2.40687e-23)
(-0.0994631 0.08944 0)
(-0.071906 0.135791 5.36337e-23)
(-0.0734837 0.14494 -1.38117e-22)
(-0.0188648 0.0844605 -3.87594e-25)
(-0.0490678 0.161522 2.19321e-22)
(-0.0683532 0.131236 -4.80729e-23)
(-0.046261 0.154273 2.85905e-22)
(-0.0603893 0.101941 -5.99691e-23)
(-0.0956745 0.0905247 -2.75377e-23)
(-0.106711 0.0649575 0)
(-0.0933229 0.035288 1.22046e-22)
(-0.0228735 0.00239537 -2.97583e-22)
(-0.0642606 0.0138681 3.43324e-22)
(-0.156986 0.0085712 0)
(-0.175482 0.00892135 0)
(-0.183877 0.00219612 -8.6021e-22)
(-0.122138 0.000715379 -1.54422e-21)
(-0.177659 0.00216154 2.79561e-21)
(-0.100233 0.00151299 7.07144e-22)
(-0.141404 -0.000253624 7.38773e-22)
(-0.0341071 0.128527 -2.27031e-23)
(-0.0433163 0.149927 2.21147e-23)
(-0.0332224 0.174033 -2.34795e-22)
(-0.00627005 0.115779 7.7841e-22)
(-0.0201007 0.178679 1.16114e-22)
(-0.0255028 0.147686 4.8544e-23)
(-0.0145023 0.164489 -2.9963e-22)
(-0.0329261 0.0874373 1.69758e-22)
(-0.0202197 0.128992 -1.16733e-21)
(-0.0141377 0.0630929 0)
(-0.00241742 0.022497 0)
(-0.166651 -0.00093644 8.74128e-22)
(-0.183288 -0.000250722 -2.6077e-21)
(-0.124799 0.000694446 -9.1936e-22)
(-0.174891 0.000120171 2.9125e-21)
(-0.098112 -4.51647e-05 -1.15537e-21)
(-0.142218 -0.000445264 1.43768e-21)
(-0.00528054 0.161046 -6.96142e-22)
(-0.00643651 0.179019 5.23323e-22)
(0.00116484 0.125845 0)
(-0.00481264 0.156626 0)
(-0.00168491 0.183501 -1.05499e-21)
(-0.0038947 0.101374 7.97848e-22)
(-0.000379974 0.130594 0)
(-0.166469 0.00208264 8.73818e-22)
(-0.181323 0.00129756 1.9796e-22)
(-0.128694 0.000689332 1.26013e-21)
(-0.174098 -0.00158998 -1.91393e-21)
(-0.1796 -0.00329309 -2.01416e-21)
(-0.0944208 -0.000685096 -2.26805e-21)
(-0.133579 -0.000614623 9.8466e-22)
(0.0036849 0.164996 7.67607e-22)
(0.000858617 0.120226 -8.12822e-22)
(-0.000382473 0.177761 2.55989e-21)
(0.00234684 0.183547 -1.97822e-21)
(-0.00065644 0.10302 0)
(0.000613722 0.142816 0)
(-0.158533 -0.00616882 -1.4497e-21)
(-0.177596 -0.00866265 0)
(-0.176252 -0.026851 1.76497e-21)
(-0.111741 -0.00639201 1.05768e-21)
(-0.166345 -0.0347288 -1.96597e-21)
(-0.167417 -0.0321569 -3.24547e-21)
(-0.151461 -0.00726623 1.95894e-21)
(-0.15772 -0.0236995 1.79047e-21)
(-0.0936109 -0.000738958 -2.94452e-22)
(-0.120223 0.000403084 0)
(-0.000494554 0.164942 -4.28083e-22)
(-0.00391484 0.129836 0)
(0.00107967 0.176442 0)
(-0.00035044 0.181907 3.27491e-22)
(-5.89266e-05 0.0971619 0)
(0.00165772 0.141278 0)
(-0.14548 -0.0640167 0)
(-0.15815 -0.0568293 -2.16119e-21)
(-0.15838 -0.0607957 2.91923e-21)
(-0.131654 -0.0853735 0)
(-0.0769294 -0.0159564 0)
(-0.124613 -0.0271178 -1.22023e-21)
(-0.14322 -0.0344326 -2.28418e-21)
(-0.131066 -0.0675386 2.80531e-21)
(-0.14283 -0.0802088 -1.47873e-22)
(-0.0633165 -0.0331505 -7.02587e-22)
(-0.0244081 -0.0116885 0)
(-0.0134888 -0.0252344 2.14828e-21)
(-0.133778 -0.0327572 7.38489e-22)
(-0.137954 -0.0555333 -1.83498e-21)
(-0.0852266 -0.00145478 -1.30142e-21)
(-0.115925 -0.0261768 1.85971e-21)
(-0.115132 -0.0705275 8.6158e-22)
(-0.118627 -0.0865173 0)
(-0.102311 -0.100066 1.57263e-21)
(-0.0306645 0.233037 3.18993e-24)
(-0.12913 0.298074 -2.98968e-21)
(-0.141499 0.223371 3.13484e-21)
(0.118118 0.186483 -2.52389e-21)
(-0.0155796 0.168173 1.44109e-21)
(-0.0179635 0.136627 -1.74492e-21)
(-0.0488989 0.204954 -8.9344e-22)
(-0.0169565 0.179706 -3.0784e-21)
(0.000758721 0.172828 -7.89493e-22)
(-0.00788997 0.177035 3.18778e-21)
(0.00108926 0.0923186 0)
(0.00219863 0.131552 2.90365e-22)
(-0.0637233 0.196228 4.23444e-21)
(-0.101793 0.189662 -1.32015e-21)
(-0.105322 -0.116675 4.15122e-21)
(-0.125849 -0.102534 2.47722e-21)
(-0.123265 -0.104434 -3.33097e-21)
(-0.0755127 -0.0606204 5.33273e-22)
(-0.0942892 -0.117975 0)
(-0.0998464 -0.0845834 2.47915e-22)
(-0.0373527 -0.061549 -3.00273e-21)
(-0.0830162 -0.138325 -5.84243e-21)
(-0.0221475 -0.0868886 0)
(-0.0684442 -0.139226 2.05103e-21)
(-0.0487095 -0.156497 0)
(-0.0774919 -0.0269443 3.18288e-21)
(-0.0940178 -0.0608666 0)
(-0.059094 -0.10404 -4.6718e-21)
(-0.0845762 -0.0928481 1.13918e-21)
(-0.0169902 -0.00142226 1.36164e-21)
(-0.0498406 -0.00930551 -5.47772e-21)
(-0.107291 0.236803 -5.3475e-22)
(-0.130272 0.200392 0)
(0.00854467 0.194052 1.9712e-21)
(-0.138449 0.107308 -1.29771e-21)
(0.262958 0.0568963 9.59839e-22)
(-0.0277753 0.176124 2.01839e-21)
(-0.0495288 0.17452 -2.27338e-21)
(-0.00862052 0.146939 -1.6684e-21)
(-0.0190578 0.149625 2.88051e-21)
(0.00082164 0.0896358 1.34577e-21)
(-0.00637471 0.115755 -8.90389e-22)
(-0.158657 0.0177633 0)
(-0.110502 0.123156 -1.9178e-21)
(-0.142474 0.0861602 1.0848e-22)
(-0.149443 0.0466752 3.14726e-21)
(-0.0543948 0.13453 -1.22969e-21)
(-0.0870174 0.11091 1.19803e-21)
(-0.0619648 -0.144142 2.24949e-22)
(-0.0615496 -0.158887 5.055e-22)
(-0.0462032 -0.169084 0)
(-0.0368415 -0.124934 -2.84021e-22)
(-0.00845229 -0.126746 1.90344e-23)
(-0.0274774 -0.174589 -3.58631e-21)
(-0.0301005 -0.151537 1.83664e-21)
(-0.0207765 -0.16389 -2.02995e-21)
(-0.0325717 -0.0908876 3.19252e-21)
(-0.0239382 -0.129416 -2.65793e-21)
(-0.0123565 -0.0598745 0)
(-0.00215594 -0.0210151 0)
(-0.0564398 0.0564968 -4.55408e-22)
(-0.117938 0.0262221 1.63728e-21)
(0.102359 0.0599499 -6.70523e-22)
(0.37282 0.0174887 1.67789e-21)
(-0.127262 0.0158693 0)
(-0.176278 0.0102362 0)
(-0.0169331 0.116026 -2.08885e-21)
(-0.0342439 0.111302 0)
(-0.166693 -0.00499997 0)
(-0.164067 0.00111833 0)
(-0.00698987 0.0841471 0)
(-0.00658673 0.0947336 -9.50591e-22)
(-0.125609 0.00389689 0)
(-0.124095 0.031891 -3.18578e-21)
(-0.0449324 0.0617798 0)
(-0.0840247 0.0658454 0)
(-0.0987063 0.0385299 2.69733e-21)
(-0.15267 -0.0111849 5.67882e-22)
(-0.0117628 -0.17811 2.51169e-21)
(-0.01116 -0.163726 0)
(0.000242758 -0.132253 -4.01799e-23)
(-0.00712181 -0.155838 0)
(-0.00344104 -0.181924 0)
(-0.00443979 -0.100124 -3.51674e-21)
(-0.00274643 -0.129404 3.20866e-21)
(-0.0483695 0.016634 0)
(0.121056 0.0122379 -1.39168e-21)
(0.372903 0.00257063 0)
(-0.186134 0.00420276 -4.69165e-22)
(-0.157421 0.00879966 1.24944e-23)
(-0.144525 0.00532162 -2.50894e-22)
(-0.17535 0.00598082 1.30803e-22)
(-0.00478285 0.0299328 5.49061e-21)
(-0.0331617 0.0241491 -1.03206e-21)
(-0.0709973 0.0107453 -2.12091e-21)
(-0.083903 -0.0148138 0)
(-0.084391 -0.00477123 0)
(0.000264474 0.0088026 1.72383e-21)
(-0.000214133 0.0220491 -6.51216e-21)
(-0.0645296 -0.00575776 0)
(0.00197385 -0.170981 -5.44035e-22)
(0.000381451 -0.132042 3.98337e-23)
(-0.0016671 -0.175547 -4.62913e-21)
(0.00119938 -0.183108 4.30567e-21)
(-0.00144099 -0.0978303 0)
(0.000237907 -0.140079 -5.35582e-22)
(0.0951849 -0.00263074 0)
(0.360602 -0.00154441 0)
(-0.170979 -0.00186118 4.25526e-22)
(-0.0971933 -0.00214802 -3.63563e-22)
(-0.150375 0.00022754 3.32044e-22)
(-0.185128 0.00674965 -5.54992e-22)
(-0.0248368 -0.000889194 0)
(0.130635 -0.186098 -5.76165e-21)
(-0.150474 -0.226357 9.8225e-21)
(-0.000558328 -0.168972 1.67199e-22)
(-0.00339369 -0.134486 0)
(0.000957607 -0.175136 3.94762e-21)
(-0.000608661 -0.181954 -2.87747e-21)
(0.000615761 -0.0951332 0)
(0.00237589 -0.145122 -1.02824e-21)
(0.0870737 -0.000193818 -3.8404e-23)
(0.354972 -0.00328822 -2.09396e-21)
(-0.193116 -0.00312731 -2.13789e-21)
(-0.106213 -0.00026445 -6.24128e-22)
(-0.153538 0.00167413 5.31351e-22)
(-0.192867 -0.00175644 0)
(0.265774 -0.0529056 -6.95934e-21)
(0.0247962 -0.165786 -6.4035e-21)
(-0.0151859 -0.169425 0)
(-0.0193899 -0.140993 0)
(0.127624 -0.00826223 -3.06207e-21)
(0.380574 -0.0155856 2.60871e-21)
(0.126005 -0.0587282 1.15793e-20)
(-0.0548554 -0.209559 0)
(-0.114013 -0.218169 9.18992e-21)
(-0.0355193 -0.248649 1.60137e-21)
(-0.148483 -0.304526 -2.59494e-21)
(-0.067514 -0.191831 -1.61702e-23)
(-0.0155496 -0.179272 -3.83668e-21)
(0.00023122 -0.173975 1.64973e-21)
(-0.00638738 -0.17666 6.07128e-21)
(0.00116658 -0.104605 -3.64429e-21)
(0.00019384 -0.14218 2.3663e-21)
(-0.0520877 -0.0137626 2.45335e-21)
(-0.173407 0.00262379 3.73135e-21)
(-0.168941 -0.00570592 -3.37012e-21)
(-0.145641 7.26952e-05 2.48413e-22)
(-0.177006 -0.000215762 0)
(-0.065162 -0.0647867 -3.8438e-21)
(-0.150105 -0.171503 -2.6291e-21)
(-0.0454109 -0.171852 -6.38659e-21)
(-0.0274841 -0.173101 7.55015e-22)
(-0.130442 -0.0145714 0)
(-0.118777 -0.0276012 -9.96343e-22)
(-0.132564 -0.170837 -6.74204e-21)
(-0.090526 -0.17499 8.70202e-21)
(-0.0749875 -0.12778 6.39182e-21)
(-0.0521796 -0.136699 0)
(-0.00758422 -0.140414 0)
(-0.0179214 -0.14446 -2.51016e-21)
(-0.00138441 -0.0973788 0)
(-0.00758274 -0.119283 0)
(-0.189811 0.000215826 2.81805e-21)
(-0.18056 -0.00487929 -5.43659e-21)
(-0.138309 0.00216791 -2.61525e-22)
(-0.170866 -0.0029513 -1.59427e-21)
(-0.158441 -0.0182552 5.1627e-21)
(-0.150214 -0.0719292 -4.45937e-21)
(-0.0189965 -0.114559 1.50547e-21)
(-0.0351646 -0.113216 3.62208e-21)
(-0.176384 0.00508388 4.45593e-21)
(-0.158396 0.00316598 -1.78752e-22)
(-0.0442841 -0.0628116 -8.00545e-21)
(-0.0785425 -0.0759807 3.85345e-22)
(-0.111511 -0.0604018 1.41753e-21)
(-0.00741608 -0.0823431 0)
(-0.00851203 -0.0922177 -2.74735e-21)
(-0.138898 -0.00451602 -2.15938e-21)
(-0.160252 0.00851379 1.53404e-21)
(-0.0894597 0.017174 1.42548e-21)
(-0.0071458 -0.0269389 0)
(-0.0350621 -0.0197749 3.56324e-21)
(-0.104323 0.0118919 1.60282e-22)
(-0.0949391 -0.00779082 0)
(0.00011359 -0.00926941 0)
(-0.00132734 -0.022081 0)
(-0.0621461 0.00684953 -3.74258e-21)
(-0.02289 0.00115195 2.94555e-21)
)
;

boundaryField
{
    movingWall
    {
        type            fixedValue;
        value           uniform (1 0 0);
    }
    fixedWalls
    {
        type            noSlip;
    }
    frontAndBack
    {
        type            empty;
    }
    defaultFaces
    {
        type            empty;
    }
}


// ************************************************************************* //
