/*--------------------------------*- C++ -*----------------------------------*\
  =========                 |
  \\      /  F ield         | OpenFOAM: The Open Source CFD Toolbox
   \\    /   O peration     | Website:  https://openfoam.org
    \\  /    A nd           | Version:  8
     \\/     M anipulation  |
\*---------------------------------------------------------------------------*/
FoamFile
{
    version     2.0;
    format      ascii;
    class       volScalarField;
    location    "0.011";
    object      p;
}
// * * * * * * * * * * * * * * * * * * * * * * * * * * * * * * * * * * * * * //

dimensions      [0 2 -2 0 0 0 0];

internalField   nonuniform List<scalar> 
424
(
-1.04762e-06
0.0614463
0.0133722
0.0987683
0.0989895
0.247522
0.0838306
0.0297296
0.27608
0.490204
0.451386
0.462685
-0.0104577
-0.166816
0.502657
0.744156
0.49778
0.502686
-0.427521
-0.198949
0.743275
0.996879
0.665297
0.665942
-0.680207
-0.442568
-0.364084
-0.377634
0.982628
1.25431
1.45135
1.52011
0.846408
0.844593
-3.52445
-0.895536
-1.11107
-1.37911
-0.683023
-0.412903
-0.417412
1.22203
1.40895
1.50721
1.41695
1.00744
1.0051
-2.89081
-2.6761
-0.893431
-1.12398
-1.17506
-0.580451
-0.581472
1.43349
1.4791
1.04467
1.04119
-2.2941
-1.15782
-0.767634
-0.765479
1.52277
1.67482
-1.07769
-0.640441
-0.958751
-0.958306
1.91953
1.70694
-0.0299255
-0.615272
-1.04229
-1.06649
2.17429
1.93222
1.87217
1.88339
0.718128
-0.00104
4.37165
2.39703
1.46336
2.10144
2.68479
5.22988
2.8611
2.60179
2.17211
1.93108
1.93594
0.723504
-0.377705
3.94361
2.39007
1.44925
2.07748
2.56753
4.51338
2.62264
2.6136
2.09658
2.09729
-0.166361
-0.403347
2.28771
2.28555
0.385818
-0.166557
2.48486
2.48941
0.96825
0.385301
2.58605
2.61678
1.54464
0.96712
1.78977
1.53941
1.80767
0.127186
0.0358049
0.0477291
0.0640085
0.0843013
0.159951
-0.0319718
0.00867283
0.214345
0.302829
0.318757
0.150903
0.169739
0.209307
0.324834
0.296153
0.289807
0.431499
0.436658
0.434223
0.0484362
-0.00178854
0.059889
0.0334273
-0.0261428
-0.0659427
-0.0508709
-0.159661
-0.0834002
-0.184806
-0.00989042
0.0424323
0.0738962
0.118639
0.286082
0.169109
0.3587
0.349748
0.475913
0.505297
0.57391
0.502263
0.590415
-0.049916
-0.0499235
-0.186885
-0.213766
-0.236584
-0.260025
-0.272492
-0.0561405
-0.273579
-0.0973459
-0.216318
0.635625
0.632547
0.74529
0.778222
0.67119
0.778907
-0.300706
-0.289356
-0.444346
-0.339584
-0.399204
-0.364629
-0.349686
0.881964
0.882476
0.98116
0.958674
1.05368
0.850276
0.943539
-0.55016
-0.678566
-0.503591
-0.558122
-0.419237
-0.516235
1.12837
1.14333
1.20547
1.20734
1.27096
1.21942
1.10976
1.18433
1.00643
1.08409
-0.797798
-0.890661
-0.701757
-0.786635
-0.586204
-0.706081
1.32474
1.30193
1.31381
1.35816
1.38674
1.36614
1.36535
1.37973
1.38486
1.47823
1.48636
1.44799
1.19315
1.27581
1.05589
1.1924
1.35557
1.38642
1.45371
-1.26899
-1.65607
-2.50765
-2.10921
-1.02734
-1.12156
-1.23043
-1.01963
-0.881743
-0.951582
-0.772343
-0.881567
-1.14979
-1.26547
1.4952
1.44189
1.45225
1.44659
1.50769
1.44989
1.46793
1.51882
1.55792
1.58319
1.67502
1.33892
1.4268
1.51635
1.49092
1.16323
1.27101
-1.49823
-1.4295
-1.65846
-1.2351
-1.09608
-1.11216
-1.15964
-1.02381
-1.08382
-0.955075
-1.03549
-0.864437
-1.20389
-1.10731
-1.07808
-1.12536
-1.23251
1.56162
1.61452
1.68649
1.55732
1.72704
1.72187
1.74632
1.77164
1.56601
1.75741
1.60929
1.71772
-0.841056
-0.732682
-0.964488
-0.605874
-0.701029
-0.566142
-1.1132
-1.1186
-0.74633
-0.759051
-1.04974
-1.14401
-1.04141
-1.08429
-1.24915
-1.17862
-1.06189
-0.758423
1.77057
1.78308
1.93434
1.85484
1.89782
1.86142
1.86005
-0.40596
-0.40903
0.0190441
-0.360685
-0.0639452
-0.406328
-0.35013
-1.40717
-1.31373
-1.09525
-1.22775
-1.17212
-1.5383
-1.49835
-1.20455
2.05833
2.17446
2.00313
2.05725
1.93403
2.01907
0.304654
0.727736
0.071727
0.317999
-0.162398
0.139858
-1.12356
3.70342
4.04818
2.30747
2.38627
2.18513
2.3051
2.10237
2.19676
1.13364
1.44138
0.796699
1.12567
0.409856
0.783926
2.5679
3.12768
2.52604
2.60948
1.88044
2.06761
2.37168
2.72148
2.9976
2.73977
3.20123
2.63319
2.51675
2.39597
2.47116
2.28719
2.38785
1.8968
1.41995
1.51304
0.970595
1.34033
2.27594
2.91283
2.65684
2.61641
2.16257
2.19294
2.79268
2.66644
2.69379
2.67528
2.57769
2.5939
2.47646
2.5846
1.77277
2.02049
1.55254
1.75381
2.38477
2.63961
2.62972
2.641
2.13671
2.34415
2.75863
2.62389
2.67077
2.60196
2.67166
1.81474
2.10086
2.61451
2.96201
2.86604
2.52453
2.55967
3.10152
3.04802
2.61947
2.52398
)
;

boundaryField
{
    movingWall
    {
        type            zeroGradient;
    }
    fixedWalls
    {
        type            zeroGradient;
    }
    frontAndBack
    {
        type            empty;
    }
    defaultFaces
    {
        type            empty;
    }
}


// ************************************************************************* //
