/*--------------------------------*- C++ -*----------------------------------*\
  =========                 |
  \\      /  F ield         | OpenFOAM: The Open Source CFD Toolbox
   \\    /   O peration     | Website:  https://openfoam.org
    \\  /    A nd           | Version:  8
     \\/     M anipulation  |
\*---------------------------------------------------------------------------*/
FoamFile
{
    version     2.0;
    format      ascii;
    class       volScalarField;
    location    "0.011";
    object      p;
}
// * * * * * * * * * * * * * * * * * * * * * * * * * * * * * * * * * * * * * //

dimensions      [0 2 -2 0 0 0 0];

internalField   nonuniform List<scalar> 
656
(
4.57211e-08
-0.2352
1.71738
-0.766022
0.188745
1.72158
-1.13122
-1.53347
2.04149
1.73555
1.79443
-0.416586
0.385382
1.73977
2.02331
2.26075
1.66567
1.61682
2.26757
2.41595
1.83373
1.85273
1.8182
1.8461
-0.0443386
0.615839
1.76832
2.00877
2.25494
1.87537
1.8982
2.60895
2.41891
2.41339
2.60817
2.77343
2.18754
2.20306
2.16891
1.81428
1.88062
0.303907
0.819903
1.80637
2.00149
2.25134
2.21674
2.22881
2.96862
2.77408
2.60999
2.41198
2.60752
2.77247
2.96786
3.15079
2.19934
2.21329
2.22457
2.15312
2.18494
1.83158
1.99939
2.24845
2.23455
2.2431
3.15207
2.96789
2.77446
3.47593
2.41107
2.60676
2.7706
2.96537
3.14773
2.22871
2.2387
2.24125
2.24132
1.99335
2.24257
2.24097
2.24072
3.72746
3.47419
3.15062
2.96655
3.4733
3.67537
4.931
2.40715
2.60697
2.76727
2.96419
3.14595
2.14893
2.14423
2.14467
2.14605
2.1473
2.1482
5.46822
5.19171
3.77052
3.46436
3.14733
3.47652
3.63354
4.69759
5.0808
2.18421
2.16949
2.16109
2.15442
2.14809
2.14254
3.54626
5.90706
5.41723
3.80395
3.44987
3.48474
2.21933
2.20825
2.19776
2.18892
2.18113
2.17423
3.62212
3.63052
6.32683
5.63057
3.82326
3.61764
2.31701
2.30424
2.29305
2.28369
2.27533
2.26836
3.28017
3.62515
3.72868
6.77207
5.88573
3.28193
2.42139
2.41139
2.40129
2.39249
2.38492
2.37857
3.21629
3.28025
3.62233
3.84075
7.26793
3.22343
3.16151
2.50747
2.50841
2.50398
2.49516
2.48597
2.47816
3.15603
3.20915
3.27935
3.61183
3.92725
3.14856
2.57537
2.59942
2.59527
2.58271
3.14527
3.14986
3.20204
3.27605
3.5969
3.14061
3.20567
2.47261
2.46519
3.14544
3.13854
3.14091
3.1445
3.19409
3.27076
3.18865
3.20873
3.21939
3.14817
3.14446
3.13582
3.13724
3.13934
3.18629
3.17777
3.19027
3.21219
3.21936
3.31062
3.15189
3.14771
3.14316
3.13376
3.13396
3.13463
3.17137
3.17843
3.19121
3.21483
3.22837
3.34539
3.15324
3.15166
3.14723
3.14234
3.13208
3.13109
3.16607
3.17151
3.17866
3.19156
3.21662
3.23673
3.15401
3.15319
3.15166
3.14705
3.14175
3.13065
3.16338
3.16596
3.17139
3.17859
3.19168
3.21765
3.1552
3.15381
3.15331
3.15177
3.147
3.14126
3.16303
3.16323
3.16563
3.17117
3.17842
3.19174
3.1569
3.15516
3.15368
3.15339
3.15193
3.14698
3.15882
3.16083
3.1632
3.16306
3.16537
3.17092
3.17828
3.15687
3.15505
3.15359
3.15346
3.15203
3.15881
3.16088
3.16335
3.16292
3.16512
3.17074
3.15683
3.15498
3.15353
3.15353
3.15884
3.16104
3.16345
3.16282
3.16491
3.15679
3.15491
3.15349
3.15885
3.16115
3.16352
3.16273
3.15676
3.15486
3.15886
3.16125
3.16357
3.15673
3.15886
3.16132
0.630022
0.922386
2.15517
2.08013
1.86179
1.8338
1.85532
1.39249
1.48527
1.26828
1.81323
1.88172
2.1863
2.18034
2.21301
2.20459
2.15198
2.12151
2.04779
1.98905
1.76615
1.57902
1.92928
1.84873
1.99945
2.01811
1.91778
2.16134
2.16597
2.19059
2.19987
2.21471
2.175
2.13353
2.13396
2.02846
1.96776
2.15859
2.24317
2.12494
2.40185
2.30213
2.17963
2.12262
4.5742
4.78855
3.45376
2.61248
2.49968
3.29691
3.14007
2.7681
2.72581
3.08429
2.96977
2.90994
2.20515
2.18388
2.19461
2.24327
2.28376
2.28645
2.2689
2.24751
2.30929
2.20753
2.49481
2.43863
2.34632
2.35835
4.07174
3.62694
3.57487
4.07481
3.89689
3.52337
3.39602
3.40573
3.2787
2.71303
2.61508
3.19542
3.08849
2.99304
2.91582
2.8298
2.226
2.24793
2.26687
2.33024
2.34933
2.42209
2.43634
2.63234
2.48907
2.43262
2.72619
2.54884
2.49972
3.75929
3.63561
3.58046
3.61185
3.54509
3.46873
3.33605
3.27444
3.16588
3.06023
2.98026
2.84719
2.79679
2.32542
2.34598
2.36201
2.45236
2.46594
2.52055
2.54871
2.68105
2.62635
2.88133
2.81301
2.6711
2.62189
3.27605
3.4077
3.42069
3.45394
3.38084
3.28943
3.21242
3.14081
2.96866
3.08126
2.99035
2.43026
2.63446
2.474
2.48252
2.53244
2.54078
2.6041
2.92343
2.76547
2.81205
2.94817
2.67635
2.7826
2.7557
2.94488
3.21733
3.24371
3.04807
3.01789
3.11688
3.07552
3.27215
3.32558
3.2938
3.06408
3.0452
3.25396
3.10838
3.11361
2.52334
2.70075
2.62495
2.67694
2.57105
2.57182
2.6052
2.81753
2.88241
2.92786
2.97321
2.7544
2.82295
2.78086
2.97283
3.02506
3.07487
3.06723
3.1212
3.16305
3.14627
3.10689
3.10847
3.15805
3.15834
3.17053
3.21735
3.10239
3.11869
3.09216
3.16068
3.13664
3.17317
3.14396
3.14497
3.15264
2.64684
2.56268
2.6191
2.71945
2.74003
2.62983
2.63897
2.71275
2.98727
2.86146
2.89962
2.75923
2.8606
3.01794
3.00678
3.06728
3.09359
3.11811
3.15279
3.15962
3.20728
3.22672
3.2252
3.20351
3.17861
3.20005
3.1655
3.21214
3.1973
3.20326
3.16898
3.15058
3.1462
3.10873
3.16779
3.1761
3.19427
3.14472
3.14442
3.12766
3.13727
3.13697
3.13868
3.15998
3.23697
2.57584
2.48709
2.55185
2.66976
2.69161
2.75515
2.89449
2.88822
2.92103
3.12123
3.02666
3.03904
3.25138
3.16859
3.14517
3.28199
3.25749
3.3292
3.18767
3.16494
3.19199
3.18349
3.18784
3.14297
3.14477
3.16632
3.1493
3.15702
3.14087
3.13412
3.15296
3.15299
3.14878
3.15213
3.15925
3.33954
3.17456
3.08217
3.03662
3.04246
3.01101
2.84891
3.03878
3.27767
3.14725
3.14685
3.17926
3.16932
3.17891
3.17102
3.17756
3.14984
3.15055
3.16897
3.16063
3.15353
3.15017
3.15796
3.14514
3.44856
3.15252
3.15179
3.15136
3.1528
3.15284
3.15308
3.17104
3.16185
3.17256
3.16955
3.17161
3.15255
3.15852
3.15338
3.16186
3.1644
3.15421
3.15593
3.15354
3.15501
3.15386
3.15472
3.16659
3.16378
3.1663
3.16644
3.1651
3.15524
3.15804
3.16093
3.15973
3.16406
3.16352
3.15501
3.1561
3.15492
3.15588
3.16296
3.16312
3.16155
3.15769
3.16028
3.15891
3.16291
3.16191
3.15685
3.15777
3.1589
3.16114
3.15981
)
;

boundaryField
{
    movingWall
    {
        type            zeroGradient;
    }
    fixedWalls
    {
        type            zeroGradient;
    }
    frontAndBack
    {
        type            empty;
    }
    defaultFaces
    {
        type            empty;
    }
}


// ************************************************************************* //
