/*--------------------------------*- C++ -*----------------------------------*\
  =========                 |
  \\      /  F ield         | OpenFOAM: The Open Source CFD Toolbox
   \\    /   O peration     | Website:  https://openfoam.org
    \\  /    A nd           | Version:  8
     \\/     M anipulation  |
\*---------------------------------------------------------------------------*/
FoamFile
{
    version     2.0;
    format      ascii;
    class       surfaceScalarField;
    location    "0.081";
    object      phi;
}
// * * * * * * * * * * * * * * * * * * * * * * * * * * * * * * * * * * * * * //

dimensions      [0 3 -1 0 0 0 0];

internalField   nonuniform List<scalar> 
1107
(
0.000315988
-0.000643388
0.000633494
-0.000306094
0.000616968
-0.00030098
-2.96871e-05
0.000646655
0.000304962
0.000538557
-0.000106654
-0.000736865
-0.000968717
0.000630292
-9.76567e-05
0.000701464
0.000286064
-5.36017e-05
-1.49161e-05
-3.72724e-05
0.000683927
-3.30518e-05
1.43474e-05
-8.79494e-05
0.000180751
-0.000148833
-6.49695e-05
0.000300272
-0.000856385
-0.00126768
0.000599238
-0.000207466
0.000740101
0.000760967
-9.67758e-05
4.17076e-05
0.000814912
-9.5652e-05
3.581e-06
-4.28358e-05
-1.13353e-05
0.000725635
0.000853069
2.99216e-05
-6.80787e-05
6.44733e-05
-0.000126751
-8.65552e-05
2.51489e-05
-4.86252e-05
0.000227394
-0.000140758
-0.000213387
0.000277847
-0.000115422
0.000296552
-0.00087509
-0.00151061
0.000539473
-0.000366498
0.00075827
0.000828766
-0.000185442
0.00089923
-0.000166116
5.21559e-06
-2.29025e-05
-6.11973e-06
-2.22931e-05
0.00086505
1.03117e-05
0.000755557
0.000946175
-0.000115024
0.000963477
-3.95953e-05
0.000951862
-2.38973e-05
3.55127e-05
3.54042e-05
-7.27548e-05
-4.92045e-05
1.3622e-05
-2.6843e-05
-8.23994e-05
-0.000131114
0.000322166
-0.000215173
-0.000320381
0.000397171
-0.000190426
0.000306686
-0.000784606
0.000459871
-0.00166379
-0.000570356
0.000743332
0.000880866
-0.000308038
0.000968445
-0.000253695
2.99796e-06
-1.22785e-05
-3.12176e-06
8.81593e-05
0.000916905
-5.32021e-05
0.000853472
-1.23192e-05
0.000765868
0.00102611
-0.000172693
0.00105048
-6.39654e-05
0.00103965
4.63459e-05
0.00099944
0.000128371
-0.000118509
0.000932832
0.000185117
5.74524e-05
-0.000104205
-3.56469e-05
2.76046e-05
-1.93567e-05
1.0414e-05
-9.6524e-06
-0.000129769
-0.000216517
-6.19163e-05
-0.000172058
0.000691201
-0.000801686
0.000902306
-0.000467012
0.0010109
-0.000362293
2.20817e-06
-4.07266e-06
-9.13587e-07
0.000865656
-6.72595e-05
0.000823941
-2.36708e-05
0.000753549
0.000822861
-0.000147402
0.000257373
0.00107959
-0.000241383
0.0011107
-9.50704e-05
0.00110239
5.46552e-05
0.00105829
0.000172472
0.000974516
0.000268889
4.56508e-05
-3.06059e-05
-7.69611e-05
2.4441e-05
-1.44371e-05
1.14678e-05
-6.38352e-06
4.27928e-06
-2.46384e-06
0.000877239
-0.00065305
0.00100527
-0.000490325
8.82551e-07
-6.75927e-07
-3.10353e-08
0.000334143
0.000670018
-0.0001813
0.00079061
-7.23569e-05
0.000785616
-2.89351e-05
0.000729878
0.000827244
0.000404645
0.000622683
0.000538704
0.000388299
-0.00129507
0.00152945
0.00108447
-0.000320587
0.00112435
-0.000134945
0.00112317
5.58361e-05
0.00107777
0.000217873
0.000975233
0.000371423
-3.58707e-05
-5.57965e-05
6.10614e-05
-1.92676e-05
-3.10402e-05
-9.09208e-06
-1.65591e-05
-3.3798e-06
-8.17612e-06
-6.70576e-07
-3.38515e-06
-7.01611e-07
0.000987998
0.000345411
-0.000945111
0.000371511
-0.000996559
0.000688051
-7.87402e-05
0.000739102
-2.58426e-05
0.000700943
0.000793486
0.000586392
0.000547568
0.000784622
0.000411897
0.00166512
0.000483365
0.000916531
-5.78824e-05
-9.54246e-05
9.75105e-05
-3.1331e-05
-5.75917e-05
-1.47863e-05
-3.31038e-05
-5.47328e-06
-1.74891e-05
-1.09568e-06
-7.76275e-06
-1.79729e-06
0.000101444
0.000300667
-5.67009e-05
0.000227767
-0.000801367
0.000357808
-0.000666317
0.000680878
-2.05162e-05
0.0006751
0.00041591
0.000168899
-4.46245e-05
-0.00012534
7.45399e-05
-2.45271e-05
-7.76891e-05
-1.18011e-05
-4.58298e-05
-4.48909e-06
-2.48011e-05
-9.73167e-07
-1.12787e-05
-2.77046e-06
0.00024647
0.000202977
-0.000148779
0.000201336
-3.02698e-05
0.000136232
-0.00057979
0.000342994
-0.000328433
0.000654584
0.000297745
0.000364635
-1.47603e-05
-0.000134215
2.36352e-05
-8.36421e-06
-8.40851e-05
-4.13929e-06
-5.00547e-05
-1.66036e-06
-2.728e-05
-4.05098e-07
-1.25339e-05
-3.17556e-06
0.000150016
0.000136506
-8.35449e-05
0.000129101
-7.65442e-05
0.00012099
-1.50282e-05
7.00079e-05
-0.000306804
0.000326151
0.000201946
0.000245815
1.39934e-05
-0.000122562
-2.56459e-05
7.11079e-06
-7.72025e-05
3.16855e-06
-4.61125e-05
1.11788e-06
-2.52294e-05
1.79586e-07
-1.15956e-05
-2.99597e-06
0.000129937
7.89275e-05
-7.23589e-05
8.59989e-05
-4.04425e-05
7.42003e-05
-2.97543e-05
5.93507e-05
-4.37105e-06
1.93473e-05
0.000120015
0.000211869
-8.92958e-05
6.00117e-05
0.000149299
1.62181e-05
-3.57566e-05
-0.000103024
7.57601e-06
-6.85604e-05
3.2385e-06
-4.1775e-05
1.16861e-06
-2.31595e-05
2.25e-07
-1.0652e-05
-2.77097e-06
3.85156e-05
-4.88839e-05
4.86434e-05
-3.50034e-05
4.90639e-05
-1.53061e-05
3.54302e-05
-5.8338e-06
1.49763e-05
-5.23161e-05
2.40125e-05
8.83152e-05
-3.1889e-05
5.77135e-05
-6.75995e-05
-1.25596e-05
-4.24889e-05
-2.81558e-06
-2.03961e-05
-5.58655e-06
1.45229e-05
-2.83234e-05
2.31385e-05
-2.3379e-05
2.72523e-05
-1.31918e-05
2.32051e-05
-3.08103e-06
9.14249e-06
4.93289e-06
-2.58485e-05
4.49282e-05
-2.0756e-06
7.07259e-06
7.25621e-06
-1.22532e-05
-1.29803e-05
5.60438e-05
-6.34596e-05
-1.85669e-05
-1.93303e-06
-8.2315e-06
1.50974e-05
2.33181e-06
-1.36574e-05
8.22051e-06
-1.34054e-05
1.26581e-05
-8.7849e-06
1.27293e-05
-2.71594e-06
6.06145e-06
1.56691e-06
4.38427e-06
-8.02678e-06
-4.9855e-07
3.47066e-06
4.10046e-06
-1.88962e-06
8.48117e-06
-1.68625e-05
1.0271e-05
-3.10708e-06
-3.3609e-07
1.51014e-06
-1.79566e-06
-4.10403e-06
8.96893e-07
-6.3338e-06
4.24594e-06
-4.99316e-06
5.79552e-06
-1.85114e-06
3.34552e-06
3.51167e-06
1.70841e-06
-3.65317e-06
1.6781e-06
2.20761e-06
1.17896e-07
1.46315e-06
-7.53601e-07
3.04879e-06
6.18597e-06
-2.68415e-06
4.81498e-06
-2.38949e-05
2.17641e-05
-2.17739e-06
2.17425e-06
-3.10395e-06
-2.24077e-06
1.09022e-07
-1.41864e-06
-1.7885e-06
2.36132e-07
-2.32399e-06
1.84534e-06
-1.04299e-06
1.49437e-06
3.85032e-06
-3.38429e-07
-2.21174e-10
2.66442e-06
7.22082e-07
1.33934e-06
9.86166e-07
2.42351e-07
4.67197e-07
-2.01033e-07
5.6567e-07
-5.8332e-07
5.39828e-06
-1.21573e-06
1.74337e-06
-2.70502e-06
-1.407e-06
1.34047e-06
-1.48274e-06
1.73113e-07
-9.40948e-07
-6.11417e-07
3.51478e-09
-4.82159e-07
4.51388e-07
2.70933e-06
-2.27819e-06
3.41917e-06
2.65918e-06
-3.33202e-07
1.80173e-06
2.59688e-07
8.83692e-07
3.44824e-07
1.82781e-07
8.33823e-08
-1.76507e-08
-1.68908e-06
-9.52939e-07
1.42629e-06
-6.61708e-07
9.98077e-07
-8.42796e-07
7.00532e-07
-8.74164e-07
1.06329e-07
-4.96865e-07
-1.11037e-07
-3.07694e-08
1.50426e-06
-2.03661e-06
3.24168e-06
1.72762e-06
-1.34663e-06
1.68531e-06
-2.16784e-07
1.07585e-06
6.75308e-08
4.62516e-07
6.50887e-08
6.57312e-08
-2.47331e-06
-1.39775e-06
2.18197e-06
-1.04751e-06
-5.67134e-07
-3.37218e-07
4.92499e-07
-4.55503e-07
2.8187e-07
-4.23677e-07
3.31411e-08
-1.41806e-07
2.15764e-06
1.27834e-06
-1.93172e-06
8.36498e-07
-1.14549e-06
1.01805e-06
-6.79361e-07
9.59349e-07
-1.00285e-07
5.24419e-07
5.62716e-09
1.3082e-07
-2.9383e-06
-7.53699e-07
1.21868e-06
-1.63531e-06
-8.09958e-07
-6.10742e-07
-2.93612e-07
-1.52741e-07
1.89737e-07
-2.04115e-07
6.23073e-08
-1.08665e-07
-2.83689e-06
1.91622e-07
-2.93026e-07
1.29724e-06
-1.9765e-06
1.35286e-06
7.61972e-07
4.32245e-07
-5.59694e-07
5.44493e-07
-2.64505e-07
4.5055e-07
-2.6416e-08
1.36447e-07
-1.96114e-06
-4.27868e-07
-1.01451e-06
-4.0619e-07
-3.25814e-07
-1.20539e-07
-5.35921e-08
3.92144e-08
-4.63585e-08
-1.88544e-06
1.15917e-07
7.64655e-07
7.99247e-07
3.94968e-07
1.9917e-07
-2.14371e-07
2.42144e-07
-5.60999e-08
1.10031e-07
-1.22966e-06
-2.12719e-07
-5.72188e-07
-1.59817e-07
-1.46233e-07
-2.78983e-08
-7.14426e-09
-1.17509e-06
6.13491e-08
3.88812e-07
4.31975e-07
1.62162e-07
7.16307e-08
-4.38575e-08
5.39309e-08
-7.00422e-07
-8.44853e-08
-2.70217e-07
-3.58331e-08
-3.50425e-08
-6.65663e-07
2.65891e-08
1.55124e-07
1.96128e-07
3.76644e-08
1.00733e-08
-3.34934e-07
-1.9768e-08
-7.08756e-08
-3.15687e-07
7.34166e-09
3.55649e-08
4.77374e-08
-9.06435e-08
-8.3302e-08
0.000597177
-0.00138178
-0.00106661
0.000323399
-0.000539916
0.000860692
-0.000537292
0.000540311
0.00130424
-0.000763926
0.00111381
-0.000267972
0.00157007
-0.00183804
0.000503455
-0.000298231
-0.00139491
0.000630983
0.000139433
-0.000311491
-0.000400483
4.44257e-05
-0.000121387
-0.000267065
0.000331851
-0.000732334
0.00117716
-0.000845312
0.00063987
-0.000755039
0.00207405
-0.00144306
0.000236006
0.00130968
-0.00107367
0.00101145
0.000358398
0.00101926
-0.0017743
-0.000423805
-6.03254e-05
0.000230334
-0.00029066
-3.67308e-05
-0.000769065
-6.73802e-05
-0.000701685
0.00137395
-0.00144133
0.000528634
-0.00124566
0.00142815
-0.00185196
0.000354477
0.00088705
-0.000532573
-0.00124545
0.000755123
-0.00137919
0.00105861
-0.000624071
0.000990101
-0.00223576
-0.000861854
0.000861465
0.000803657
0.001778
-0.000412951
0.000999343
-0.00149413
0.00135919
-0.000435524
-0.00116237
0.000749418
-0.000790945
-0.00132531
0.00138114
3.38767e-05
-0.00129358
0.000502633
-0.00107571
0.00030544
-0.000193149
0.000132844
-0.000325993
-0.000568841
0.000281259
-0.000850099
-0.00116007
0.000202716
-0.00136278
-0.00203305
0.00114366
-0.00200551
-0.000611086
-1.29851e-05
-0.000667318
0.000231794
-0.000680303
-2.44893e-05
-0.00200856
-0.00203
-0.000901718
0.00170537
-0.000117096
0.000882247
0.0002819
0.0014961
0.00198727
0.00166499
-2.6766e-05
0.000909013
-0.00101698
0.000990213
-0.000267561
-0.000587116
0.000620993
-0.000355323
-0.000971514
0.000703953
-0.00046888
-0.000798022
0.000329142
-0.000492583
0.00012841
-0.000251453
8.12163e-05
-0.000332669
-0.000768883
3.49811e-05
-0.000803864
-0.0013278
-0.000350881
-0.000976921
-0.00235944
0.000884683
-0.00124001
0.000204381
-0.00182562
-0.00142584
0.000185833
0.000920229
-0.00274585
-0.00143921
0.000538727
0.00144855
0.00144774
-0.00100917
0.0013738
0.000655828
0.00210438
9.87959e-05
0.00134894
0.00108901
4.3997e-05
0.00104501
0.00074795
0.000217781
0.000530169
0.000546922
0.000675333
-0.000750506
-0.000309034
1.00519e-05
-0.000319086
-0.000793812
-0.000349427
-0.000444386
-0.00132635
-0.000424797
-0.000901551
-0.00186401
0.00201387
-0.00182804
-0.000731981
0.00173276
-0.00248327
-9.52782e-05
0.00128856
-0.00202054
-0.000575447
-0.000617174
0.00086299
0.000756627
-0.00121312
0.00196975
0.000891255
0.0022402
0.00140611
0.000834091
0.00245112
0.00298129
-0.000632498
0.00205928
-0.00142679
0.00311576
-0.000134474
-0.000344732
0.000565038
-0.00114049
-9.40146e-05
-0.000250717
-0.0005384
-0.000119137
-0.000419264
-0.00102069
-0.000455649
0.00182447
0.000234817
-0.00172919
-0.000291352
-0.000733416
0.000968233
-0.000977286
-0.000163199
0.000648002
-0.000939354
-0.000329284
-0.00117899
0.000445575
-0.00032537
0.000537239
0.000537619
2.8056e-05
-0.000605838
0.000577782
-0.00115093
-0.000122759
0.000349265
-0.000226506
-0.000728597
-0.000703105
0.00124072
0.00126664
0.00210073
-0.000341414
-0.000809521
-0.0017682
0.00121701
0.000883728
0.00108253
-0.000685669
-0.000286474
0.000394873
-0.000558072
-0.000676764
0.000221115
-0.000281891
-0.000125807
-0.000160667
-0.000545071
-0.000323956
-0.00126103
0.000321673
-0.000292794
-0.000608665
0.00031587
-0.000163089
-0.000503035
-5.50371e-05
0.000832319
-0.000510646
-0.000676736
0.000513647
-9.89535e-05
0.000369113
-1.9848e-05
0.00027016
-0.000219642
0.000199794
1.7218e-05
0.000144682
-0.0001619
-0.000202424
-0.00042893
-0.000259303
-0.000169628
-0.00011302
0.000262319
0.000424219
-0.0001493
0.000573519
0.00109142
0.000317387
-0.00057669
-0.00041121
-0.00122073
0.000468752
0.000622672
-0.000666811
-0.00055392
0.00135248
-2.15631e-05
0.000109878
0.000240756
0.000113871
-0.000274538
-1.08469e-05
-0.000466336
0.000184444
-0.000521373
-0.000100944
-0.000173593
-0.000424901
-0.000240456
0.000483818
2.98282e-05
-0.000799689
0.000289043
-0.000532013
1.06407e-05
-0.000242971
-0.000300931
0.000330759
-0.000346559
4.56278e-05
-7.63993e-05
-0.000238825
0.000162426
-3.90314e-05
-0.000132051
9.30194e-05
1.26313e-05
5.50588e-06
2.43877e-05
-2.98935e-05
1.27621e-05
-2.40505e-05
4.84382e-05
6.98242e-05
-9.38748e-05
8.24555e-05
-4.69408e-05
-4.6934e-05
-0.000208841
-2.42625e-05
-5.63105e-06
-7.11965e-05
-1.78843e-05
-0.000102306
-0.000106535
-0.000271934
-0.000104206
-0.000167728
-0.000680895
-9.42934e-05
0.000335049
0.000479226
0.0011019
-0.000443739
-0.000237156
0.000997659
0.000104239
1.87261e-05
2.62021e-05
0.000128604
4.65975e-05
8.20069e-05
0.000381646
5.40445e-05
-0.000227638
1.35549e-05
-7.32801e-05
-0.000154358
-0.000313736
-0.000303096
-0.000234939
-6.81567e-05
-0.00047791
-0.000147151
0.000192015
-2.95891e-05
-0.000237643
9.04923e-05
5.34889e-05
2.89666e-05
0.000146508
0.000116919
4.10002e-05
7.43797e-06
6.99668e-05
1.77089e-05
-4.91596e-05
-2.20368e-05
-0.000155694
-2.31033e-05
5.21899e-06
-4.51401e-05
-2.8078e-06
1.52479e-05
-1.5053e-07
4.14501e-05
-0.000103316
-5.23781e-05
-0.000271044
-0.000148738
-0.000122306
-0.000385894
0.000342303
3.93435e-05
0.000446542
6.06478e-05
9.45297e-06
3.19971e-05
9.14598e-05
0.000130803
9.71292e-05
-2.71623e-05
0.000214048
-0.000236384
8.20264e-05
-0.000304541
-1.85669e-05
-5.39827e-06
-8.07156e-06
7.92104e-06
-6.56143e-06
-4.0811e-05
-4.32913e-06
-9.31891e-05
-1.27276e-05
9.9198e-06
-1.70567e-05
6.26661e-06
1.14621e-05
-3.54104e-06
4.34592e-05
-7.53105e-05
-1.78786e-05
-0.000197616
-0.000136969
3.34885e-05
9.97063e-06
0.000164292
2.73233e-05
-8.42298e-06
4.88194e-06
5.0937e-06
-8.19765e-06
-1.46773e-06
-9.89071e-06
-7.68179e-07
-7.42947e-06
-3.4732e-06
-3.03803e-05
1.33235e-05
-4.82588e-05
-1.81555e-06
8.08216e-06
1.1508e-05
8.08192e-06
1.3157e-05
-8.27502e-06
2.31276e-05
3.05176e-05
-7.39001e-06
-5.78409e-05
9.58205e-06
-4.51017e-07
-9.43969e-06
-8.72604e-06
-2.52269e-06
-4.90679e-06
-1.19624e-05
-2.04692e-06
-6.9537e-06
2.83213e-06
8.67583e-06
1.24142e-05
-4.25753e-06
7.6767e-06
3.82439e-06
1.25002e-05
-2.5806e-06
-6.14544e-06
-9.97061e-06
-1.12794e-05
1.30883e-06
1.13472e-06
8.31074e-07
6.84562e-06
4.07275e-06
-8.19461e-06
-3.76777e-06
-1.43401e-05
-4.77173e-06
-8.5395e-06
4.98739e-07
6.34688e-06
1.2999e-05
1.41337e-05
-1.30075e-05
-1.33255e-06
1.16987e-05
2.435e-06
2.14103e-06
8.4879e-06
-7.32082e-06
-8.65337e-06
-8.9464e-06
6.51141e-06
)
;

boundaryField
{
    movingWall
    {
        type            calculated;
        value           uniform 0;
    }
    fixedWalls
    {
        type            calculated;
        value           uniform 0;
    }
    frontAndBack
    {
        type            empty;
        value           nonuniform List<scalar> 0();
    }
    defaultFaces
    {
        type            empty;
        value           nonuniform List<scalar> 0();
    }
}


// ************************************************************************* //
