/*--------------------------------*- C++ -*----------------------------------*\
  =========                 |
  \\      /  F ield         | OpenFOAM: The Open Source CFD Toolbox
   \\    /   O peration     | Website:  https://openfoam.org
    \\  /    A nd           | Version:  8
     \\/     M anipulation  |
\*---------------------------------------------------------------------------*/
FoamFile
{
    version     2.0;
    format      ascii;
    class       volScalarField;
    location    "18000";
    object      epsilon;
}
// * * * * * * * * * * * * * * * * * * * * * * * * * * * * * * * * * * * * * //

dimensions      [0 2 -3 0 0 0 0];

internalField   nonuniform List<scalar> 
4109
(
0.117448
0.131116
0.120838
0.129917
0.135543
0.131548
0.136733
0.120697
0.145285
0.145064
0.143158
0.147245
0.11992
0.134621
0.139704
0.150934
0.151628
0.150008
0.151989
0.141144
0.121852
0.130567
0.13173
0.158827
0.160151
0.165311
0.120026
0.133843
0.11853
0.160473
0.149187
0.143096
0.133002
0.131282
0.137942
0.163078
0.164096
0.176555
0.137233
0.119609
0.13442
0.137029
0.122401
0.166565
0.154522
0.552361
0.255179
0.14888
0.143821
0.13269
0.138997
0.170776
0.178451
0.192216
0.150475
0.137549
0.11732
0.135044
0.139387
0.14768
0.144051
0.676448
0.177315
0.163067
0.157187
0.221594
0.55245
0.151027
0.143484
0.143882
0.207829
0.184805
0.236317
0.22742
0.224585
0.15588
0.155612
0.144012
0.134713
0.14429
0.140625
0.143545
0.149292
0.152086
0.182428
0.249289
0.590749
0.800663
0.80997
0.188968
0.184678
0.169517
0.163118
0.157877
0.197332
0.42186
0.15129
0.144307
0.237085
0.220717
0.209838
0.242332
0.248356
0.245916
0.251896
0.165711
0.16128
0.15579
0.14121
0.154484
0.207859
0.1472
0.151788
0.154738
0.161324
0.81949
0.30325
0.401433
0.566769
0.895477
0.847238
0.251607
0.206332
0.194386
0.178849
0.172039
0.16567
0.157374
0.429083
0.167516
0.154808
0.241512
0.227104
0.260361
0.251883
0.27434
0.256568
0.1721
0.169807
0.169243
0.155095
0.160977
0.211133
0.152189
0.157548
0.162785
0.166816
0.798456
0.474365
0.916161
0.598828
0.925756
0.284553
0.214462
0.20367
0.186773
0.17915
0.172491
0.166056
0.159943
0.415075
0.15346
0.235695
0.221824
0.269644
0.248224
0.279166
0.283649
0.300085
0.182712
0.178224
0.177039
0.163929
0.169623
0.226579
0.159219
0.165603
0.168918
0.176763
0.556401
0.972843
0.579414
1.00949
0.984629
0.313512
0.197387
0.207055
0.188714
0.172258
0.180784
0.170828
0.473495
0.161008
0.219138
0.230588
0.263616
0.24429
0.278158
0.297222
0.296313
0.338056
0.190365
0.188162
0.189471
0.177754
0.17134
0.228545
0.16579
0.171663
0.177975
0.183813
0.60266
1.05388
1.07882
0.665637
1.09676
0.310498
0.198463
0.210152
0.184846
0.178405
0.496833
0.171574
0.221466
0.234392
0.257909
0.247681
0.273648
0.29623
0.311801
0.335234
0.375038
0.202439
0.196973
0.196605
0.189101
0.178953
0.241258
0.179824
0.172461
0.211963
0.185977
0.194914
0.591054
1.15093
0.698654
1.19335
1.19331
0.328757
0.200874
0.208845
0.190318
0.547321
0.171193
0.224061
0.234164
0.26209
0.25034
0.277485
0.289834
0.315064
0.338442
0.362229
0.422392
0.213114
0.205305
0.202634
0.222026
0.18114
0.24541
0.184168
0.225183
0.203814
0.196864
1.24212
0.615543
1.29074
0.766194
1.32883
0.338847
3.64985
0.202939
0.215065
0.577108
0.178517
0.223621
0.237584
0.263058
0.249451
0.279758
0.293522
0.308307
0.33749
0.364643
0.402126
0.412959
0.47906
0.210092
0.219834
0.203513
0.234339
0.236736
0.186846
0.255189
0.199698
0.216297
0.207085
0.639633
1.36578
1.4153
0.770737
1.44494
0.35361
4.40738
3.87582
4.60697
3.18424
3.9592
2.78974
0.751764
0.187304
0.231469
0.238885
0.253836
0.252521
0.26754
0.280595
0.29401
0.311392
0.42399
0.327688
0.361238
0.397176
0.478459
0.541667
0.510046
0.617859
0.231727
0.225024
0.247544
0.251647
0.227121
0.19941
0.271777
0.207346
0.219421
0.698589
1.52074
1.50321
0.357021
9.80429
7.17486
4.72242
3.39321
4.36372
5.47821
0.724371
0.718618
0.810411
3.02079
2.61985
2.79068
2.54537
2.91515
1.38703
0.219007
0.305736
0.287315
0.274071
0.464694
0.28491
0.295614
0.311872
0.330418
0.42252
0.349641
0.387942
0.533201
0.479672
0.589861
0.576224
0.721148
0.806613
0.248664
0.251309
0.265023
0.264859
0.241316
0.231316
0.209936
0.269347
0.223009
0.789541
1.8115
10.1273
7.33936
3.60962
4.35717
5.52844
0.787731
0.840137
0.920337
0.843768
0.898342
2.13266
2.32175
2.24651
2.52334
2.99091
2.06877
1.18221
0.318532
0.328554
0.29216
0.454859
0.47188
0.310679
0.308337
0.329142
0.351503
0.414618
0.373177
0.542322
0.509188
0.595643
0.647278
0.729696
0.766512
0.276542
0.265319
0.232793
0.293498
0.281783
0.254491
0.245423
0.319437
0.236784
0.224545
0.330618
0.867928
9.84249
11.2001
7.49129
3.58597
4.45296
5.70717
0.830642
1.00247
1.18956
0.939053
1.02763
1.82949
1.47208
0.933203
1.00112
1.9927
2.18588
2.5446
2.95255
2.48311
2.13112
0.605346
0.345419
0.325259
0.44396
0.473825
0.325191
0.32834
0.349738
0.374208
0.400022
0.553597
0.513289
0.605108
0.660802
0.698565
0.758244
0.302253
0.319377
0.295074
0.248683
0.249057
0.270971
0.286962
0.259836
0.334764
0.307204
1.72588
2.49476
0.241296
0.235148
10.2517
7.29755
7.04484
11.4057
7.76151
3.63366
4.54875
5.91913
0.912761
0.805852
1.07055
1.20277
1.13502
1.4044
1.66362
1.0369
1.12286
1.908
2.14635
2.52699
3.06518
3.27083
3.08733
3.87744
0.641803
0.409811
0.348308
0.429296
0.462463
0.350668
0.346666
0.370389
0.400717
0.498965
0.540404
0.586575
0.639251
0.693383
0.739234
0.773232
0.33738
0.335561
0.262453
0.261986
0.276741
0.293221
0.31276
0.358075
0.32708
0.264367
0.361007
0.458451
10.664
7.53975
6.47381
4.31498
4.3917
11.5843
7.60072
3.71551
4.14697
4.95762
1.00671
0.876719
0.838714
1.61549
1.25986
1.35025
1.15896
1.24828
1.86929
2.11717
2.63669
3.13222
0.944692
3.87772
3.92195
4.47712
0.854601
0.455532
0.386807
0.429776
0.462374
0.371135
0.37331
0.398424
0.498412
0.539005
0.584337
0.635693
0.680297
0.713925
0.770654
0.78289
0.376176
0.37787
0.283053
0.282784
0.298944
0.315768
0.331774
0.385257
0.349434
0.332948
0.283578
0.302666
10.4477
3.29171
6.16611
5.39711
4.35535
11.7404
7.70914
3.51002
4.33029
5.22202
6.51452
1.11569
0.862337
0.976294
0.867314
1.29764
1.56127
1.41971
1.87386
2.27455
2.71537
2.99761
0.994312
4.63637
4.81261
5.59015
0.964636
0.532888
0.421957
0.460092
0.42606
0.396671
0.401677
0.49467
0.535264
0.627015
0.578133
0.667742
0.709718
0.711792
0.759966
0.823951
0.421508
0.407905
0.417834
0.304297
0.303464
0.330321
0.34941
0.372164
0.36464
0.306069
0.349448
10.9353
7.30173
2.47821
2.7169
4.9653
4.35675
3.59392
8.10778
11.6782
3.65402
4.28726
5.04612
6.20935
1.23862
0.892836
1.06792
0.919245
0.979826
1.46353
1.57339
1.37164
1.94505
2.32959
2.63831
3.13335
1.47387
5.55455
5.89843
6.51468
1.20794
0.610832
0.444735
0.463044
0.429005
0.429567
0.502864
0.534684
0.617386
0.580803
0.681161
0.711793
0.749131
0.798986
0.85711
0.474619
0.456775
0.45167
0.400131
0.330298
0.332456
0.351184
0.365318
0.381392
0.330771
0.412319
11.7556
8.623
6.4432
5.50839
1.92308
2.16862
2.59469
4.1624
3.56008
3.08902
1.56117
8.09184
11.4655
11.6747
3.6375
4.28798
5.73851
5.04662
1.19567
0.943883
1.04419
0.973717
1.51542
1.70893
1.33248
3.13816
2.00076
2.24162
2.7031
1.59787
6.75785
7.27321
8.13386
0.473388
1.4475
0.631171
0.466639
0.466566
0.554011
0.531775
0.636349
0.643753
0.598478
0.691275
0.752919
0.811263
0.537123
0.500036
0.485586
0.428654
0.414887
0.351334
0.347284
0.371955
0.394283
0.355377
0.440602
0.617021
0.702066
8.36457
6.67936
5.12869
4.42389
1.77569
2.19127
2.62916
3.42764
2.94203
1.4646
1.24731
1.07337
0.860721
0.799973
10.8309
7.80641
10.8555
8.13343
3.16462
3.67723
4.21667
5.60405
1.17295
0.996242
1.0563
1.72703
1.52246
1.33607
1.26962
2.69359
2.68788
1.97713
2.33248
1.95477
9.22495
8.37605
9.37218
0.665269
1.55654
0.501419
0.557426
0.639106
0.583255
0.686675
0.7328
0.786203
0.541475
0.52055
0.462879
0.440205
0.418149
0.380345
0.375293
0.39912
0.513453
0.384191
0.741298
0.619382
0.680215
6.409
5.41963
4.19619
3.58392
1.79217
2.24733
2.47653
2.82513
1.57428
1.23732
1.30377
0.760503
1.04561
0.825783
0.900504
8.01285
6.67113
6.2525
5.15083
3.0025
3.52707
4.60312
2.63039
1.13366
1.0573
1.64541
1.40684
1.532
1.36024
1.22197
2.36244
2.40651
2.00183
1.80388
11.3057
10.5275
11.3647
1.07519
1.74626
0.552435
0.325694
0.635581
0.700509
0.759608
0.561334
0.49899
0.479268
0.452833
0.426529
0.403018
0.396361
0.462761
0.401869
0.691125
0.616146
5.04642
5.20355
4.42532
3.43665
2.91191
1.92208
2.12035
2.36741
1.64355
1.45871
1.28052
0.768993
0.819099
1.128
0.891279
0.984568
5.79421
5.17641
5.13595
4.29851
2.32756
3.11933
3.40962
2.69069
4.32648
1.1215
1.72947
1.56774
1.47289
1.30098
1.19121
1.80687
1.99252
2.03127
1.84977
15.1856
13.6377
15.6485
3.07333
0.617828
0.901221
0.681397
0.743254
0.54147
0.513411
0.483969
0.459919
0.433655
0.429523
0.47176
0.437811
0.67673
0.587682
4.25038
4.32604
3.54113
2.79965
2.41798
1.82953
2.01411
1.58802
1.39072
1.23524
0.73914
0.801274
1.10345
0.887542
0.980629
4.27265
4.13339
3.34532
1.89332
2.0972
2.38375
2.6044
3.55148
1.50034
1.37258
1.25155
1.64509
1.58003
1.79791
2.64464
20.8832
27.3958
9.45341
0.677892
1.11672
0.73919
0.560258
0.525762
0.4952
0.462854
0.458289
0.506348
0.641493
0.605448
3.51507
3.45936
2.81686
2.32353
2.0518
1.73467
1.51063
1.32712
1.17599
0.701314
0.770843
1.04884
0.849662
0.94195
3.40615
3.40175
2.78919
1.95536
2.1278
2.30828
1.81823
2.82759
1.41158
1.30882
1.5097
1.54038
1.67697
4.70907
46.1599
45.4975
21.3401
0.754578
2.34214
0.566036
0.536536
0.494038
0.502083
0.618584
0.66322
0.617523
2.83005
2.81309
2.33797
1.98757
1.76637
1.53934
1.35298
1.20186
0.722681
0.795329
1.07356
0.873576
0.967579
2.78428
2.77102
2.32925
1.85494
1.98324
1.68679
2.347
1.35724
1.43021
1.45601
1.52722
1314.43
10.096
77.9241
81.0456
51.36
1482.06
0.57955
0.541244
0.556469
0.553662
0.84879
0.669739
0.63024
2.30199
2.32658
1.99986
1.72339
1.50583
1.33252
1.18733
0.734069
0.800822
1.07025
0.880699
0.966507
2.21336
2.23581
1.98269
1.68309
1.53065
1.95586
2.00959
1105.62
1207.57
23.4056
139.853
140.025
1581.94
1368.79
1951.41
0.594757
0.541555
0.613937
0.610639
1.41834
0.685712
0.625129
2.01128
2.00478
1.7267
1.50891
1.33495
1.1959
0.749651
0.819722
1.08029
0.982877
0.896165
1.97308
1.75619
1.5274
1.74006
1.81119
1.77997
765.492
976.013
1147.94
53.4527
1532.82
1304.32
1833.49
1961.68
0.621454
0.61701
0.683085
3.05375
0.69939
0.634822
1.67086
1.68281
1.48697
1.32162
1.19071
0.75048
0.83217
1.08565
0.991898
0.909469
1.76057
1.57274
1.623
1.65276
1.63803
1.61587
713.711
612.088
896.894
1138.69
1897.47
1679.19
1524.18
1292.6
1911.17
1981.01
0.660361
0.681187
0.756247
0.681864
0.700272
0.740031
1.54804
1.37307
1.2523
1.13419
0.81067
0.822034
1.06372
0.964323
0.918442
1.57055
1.5248
1.52905
1.50798
1.48162
557.964
507.679
864.053
1195.14
2190.36
1965.52
1473.49
1725.36
1572.51
1349.41
2039.05
2022.55
0.695944
0.723834
0.739427
0.761956
0.822636
1.45043
1.33284
1.23496
1.13748
0.853113
0.87821
1.06159
0.990508
0.932845
1.42033
1.38875
1.34338
2450.88
445.499
441.062
884.191
1369.68
2212.48
2138.48
1260.1
1495.99
1817.17
1713.74
1528.21
2269
2098.64
0.726045
0.752575
0.787715
0.820085
1.3213
1.27178
1.20439
1.13312
0.865989
0.909177
1.06606
1.00829
0.953795
2895.39
2421.23
366.607
407.014
990.201
1881.82
2276.85
2426.65
1155.71
1260.35
1549.98
1968.58
2040.67
2051.79
2678.15
2236.98
3321.85
3008.91
2396.82
314.341
408.287
1333.77
4454.51
2421.02
2930.48
989.02
1163.28
1290.31
1654.59
2223.59
2896.03
4638.54
3463.18
2480.25
3374.41
3730.19
3055.33
2413.9
292.748
487.417
3079.05
2703.19
3777.29
876.892
999.859
1193.15
1365.61
1844.82
2686.63
6776.24
5315.04
3328.24
3868.98
4149.61
3087.42
2526.15
322.077
958.468
3284.27
5364.47
596.862
869.577
1048.54
1261.85
1514.67
2208.04
3718.13
12567.5
2677.23
3691.55
4512.8
4527.43
3165.51
2828.9
573.976
4693.64
129.284
536.981
868.504
1148.9
1397.43
1807.71
3042.53
7544.78
2913.26
3105.9
4042.43
5372.84
4859.43
3400.9
3638.6
10115.1
83.7186
121.438
493.305
873.633
1332.51
1665.95
2486.81
6174.13
2432.96
3307.21
3644.74
4411.91
6530.93
5250.17
4126.33
6828.53
91.1741
88.1426
117.576
462.951
887.928
1679.32
2289.56
4978.61
1331.11
2826.85
3766.71
4314.03
4845.05
7939.57
6145.07
7109.04
97.2214
99.1874
95.7612
118.789
446.986
922.932
2459.79
4556.35
1074.43
1549.77
3270.43
4341.56
5136.63
5749.8
9646.45
9594.04
97.6941
105.687
110.74
107.94
128.818
449.708
1032.74
5230.83
930.226
1170.17
1773.26
3798.74
5167.49
6152.13
7955.16
11964.3
92.3582
106.141
117.891
127.701
127.756
160.347
520.429
1298.51
947.25
1044.92
1279.5
2056.39
4444.37
6528.73
8214.46
11073.8
85.3094
100.281
118.327
135.869
154.167
163.409
249.633
1060.45
1071.96
1058.13
1171.87
1429.67
2480.44
5264.3
9351.94
18306.7
128.448
89.7415
111.807
136.293
164.025
200.823
246.35
662.698
1339.96
1170.98
1182.85
1334.59
1666.74
3221.77
6565.01
15179.9
577.341
121.15
97.4211
128.797
164.451
213.959
307.812
600.143
2461.14
1555.17
1283.7
1344.78
1575.41
2090.13
4717.9
11705.7
901.612
523.283
117.718
109.704
155.394
214.41
328.776
763.809
3034.96
2868.27
1775.37
1436.67
1586.19
1988.78
3014.78
9089.27
1000.68
888.317
481.804
119.341
129.698
202.382
329.347
817.162
2747.3
3553.8
3366.6
2044.03
1675.91
2002.23
2869.31
6006.57
1174.24
1015.61
885.533
451.989
129.957
165.662
310.21
817.14
3383.88
3263.27
4186.72
4060.34
2429.09
2110.69
2891.19
5719.89
1268.84
1185.47
1069.46
890.699
436.15
162.012
249.023
767.083
3312.25
3823.53
4029.26
4963.09
5096.93
3054.61
3071.88
5792.33
1486.16
1271.48
1220.44
1176.01
905.895
438.899
251.597
601.781
3216.05
3795.99
4411.3
5291.69
5947.12
6900.18
4312.98
6260.62
1705.85
1513.7
1305.3
1295.62
1367.79
943.952
509.47
662.144
2899.38
3593.71
4443.22
5266.71
7594.55
7503.94
12996.5
8283.5
2081.59
1891.11
1763.59
1573.75
1385.72
1439.92
1727.5
1057.61
1047.86
2436.84
3024.56
4006.24
5288.65
6581.15
12861.8
10944.7
66117.9
1696.84
2082.94
1987.31
1868.46
1684.71
1541.89
1722.49
2538.75
1341.44
2175.97
2407.14
3079.88
4432.06
6430.68
8668.64
27845
14147.3
1848.22
1532.37
1655.56
2103.73
2130.39
2032.99
1882.57
1847.65
2376.71
5421.29
2185.34
2380.81
3102.01
4866.05
7938.68
12079.5
77303.1
1911.82
767.21
1437.61
1435.2
1656.06
2149.74
2380.03
2303.06
2257.96
2553.1
4760.26
851.44
1214.2
2240.55
2393.94
3165.84
5380.82
9748.51
10887.2
2070.63
600.832
1323.32
1380.82
1716.69
2234.08
2818.29
2787.16
3117.45
5150.43
678.426
1084.42
2377.51
2501.05
3399.03
6331.74
11494.6
2344.16
480.458
1260.95
1379.11
1878.53
2385.3
3654.41
3856.77
6354.74
563.588
1004.13
2651.25
2797.43
4117.91
9617.43
2827.11
395.843
1254.52
1449.54
2243.13
2651.42
5632.26
7834.85
489.681
972.651
3216.08
3592.99
7032.86
3658.74
339.236
1321.42
1653.56
3195.18
13422.4
450.666
999.565
4585.4
6725.42
5226.18
314.82
1521.44
2238.15
7538.75
448.709
1121.9
9841.86
343
2101.53
5136.84
527.308
1509.29
610.003
5000.15
1009.37
3464.51
0.906029
0.866232
0.890954
0.890888
0.9201
0.916306
0.929832
0.929227
0.947149
0.833824
0.854737
0.862932
0.886698
0.893368
0.916654
0.926042
1.00139
1.02609
1.04903
1.08608
1.11265
0.946267
0.958974
0.945171
0.946336
0.954573
0.94914
0.973685
0.965971
0.992034
1.15605
1.17652
0.806152
0.8281
0.839608
0.861513
0.873027
0.892843
0.909459
0.929276
0.945685
0.964019
0.983333
1.00318
1.03483
1.05761
1.10939
1.13564
1.22575
1.24026
0.976863
0.991791
1.0114
1.02757
1.05183
1.07388
1.1143
0.972249
0.976755
0.974601
0.973645
0.992978
0.981237
1.02188
1.00875
1.04181
1.11399
1.14387
1.31068
1.33636
1.22353
1.21768
1.29957
0.786531
0.80591
0.822437
0.84135
0.858975
0.877607
0.897725
0.915335
0.943156
0.963837
0.989201
1.00885
1.07815
1.09345
1.15215
1.16609
1.24379
1.26824
1.34951
1.38609
1.47969
1.49365
1.62725
0.999361
1.00867
1.02781
1.04397
1.06908
0.997953
0.999802
1.00858
1.00126
1.03385
1.01939
1.09376
1.06965
1.05299
1.07841
1.13803
1.14209
1.22521
1.25101
1.57212
1.36583
1.48743
1.31653
1.36244
0.775557
0.793402
0.813499
0.832527
0.853516
0.871551
0.894161
0.914548
0.935814
0.960919
0.991427
1.03297
1.15696
1.10773
1.22683
1.26202
1.345
1.36479
1.45031
1.67541
1.72294
1.74183
2.01128
2.04341
1.94665
2.09055
2.09339
2.81671
1.02164
1.03131
1.04779
1.06374
1.14623
1.118
1.02625
1.02336
1.04387
1.03342
1.09658
1.07437
1.05996
1.19813
1.16828
1.08891
1.1287
1.15998
3.64217
3.07155
5.66799
1.23229
1.2355
1.32384
1.35504
1.61052
1.64132
2.30834
1.93661
1.55226
1.61926
0.781383
0.795425
0.820593
0.836509
0.863052
0.879565
0.908992
0.928793
0.991697
0.96862
1.04746
1.07463
1.16964
1.18786
1.3628
1.35979
1.54663
1.55987
1.73357
1.76412
1.94646
22.614
21.2023
12.4968
2.00936
2.23251
2.40792
2.67656
2.95222
3.10317
3.09168
11.6203
4.93399
1049.7
1328.24
1243.7
1827.46
1541.15
1656.02
1768.08
1836.75
1.04704
1.0492
1.07232
1.08639
1.14232
1.11815
1.05712
1.0506
1.10025
1.08145
1.07019
1.252
1.21984
1.18996
1.16376
1.10697
1.15455
1.25095
1.18782
1.24204
894.984
629.055
109.689
57.4376
25.0409
2.46104
4.08821
5.37071
14.9014
1.36664
1.37248
1.38203
1.37297
1.59666
1.62975
1.76935
1.7054
2.29266
961.17
1258.28
1472.67
1399.34
1619.81
1764.82
1798.37
1857.29
1809.35
1760.7
0.872406
0.83828
0.903042
0.891244
0.949338
0.941574
0.999826
0.99577
1.05281
1.05085
1.12008
1.11888
1.23756
1.26792
1.31806
1.33516
1.1639
1.45704
1.26974
1.32047
2.81026
2.80631
3.38477
3.81122
3.72462
58.3819
94.1662
300.471
182.547
56.3433
39.1298
6.34487
8.40096
12.1496
11.4488
36.1147
16.7667
14.8252
390.098
930.556
614.511
675.476
956.013
1183.4
1309.85
1303.24
1608.36
1596.61
1606.09
1519.18
1823.89
1883.59
1917.66
1741.6
1890.81
1811.69
1.07565
1.07597
1.09701
1.11293
1.14477
1.12134
1.10973
1.09199
1.0817
1.30377
1.26924
1.23593
1.20897
1.18381
1.1606
1.12804
1.17411
1.17981
1.2431
1.24813
1.31045
1.24034
185.261
492.072
331.507
848.242
525.158
92.2152
198.259
70.5697
23.7244
1.3733
17.3979
3.0649
6.21158
4.38215
1.55199
1.4832
1.6698
1.56325
1.70554
1.69308
1.93382
1.7929
3.0768
949.756
1332.4
846.942
1460.89
1650.92
1261.04
1490.4
1772.37
1777.43
1795.42
1616.11
1797.49
5.16781
1.15939
103.717
29.1433
2.42224
1.18625
1.78985
1.13727
1.48634
1.09032
1.32613
1.29343
1.24813
1.40502
1.37231
1.60796
2.28936
1.4332
2.75082
4.13213
4.26388
7.77539
22.2892
8.64346
9.29025
39.2838
42.6579
14.8773
13.5965
19.0661
19.963
26.6742
28.3014
122.081
185.477
344.696
238.055
132.75
83.7245
49.318
54.2165
99.0964
66.7192
73.0044
608.446
480.454
648.864
963.344
854.309
1267.37
1172.29
1578.55
1415.61
1475.64
1678.65
1847.25
1773.74
1672.74
1856.58
1938.28
1945.31
1.13358
1.1042
1.102
1.12192
1.14425
1.1257
1.11747
1.14609
1.3585
1.32212
1.28275
1.25211
1.22405
1.19715
1.18111
1.15871
1.40807
1.35052
1.4094
1.46357
1.4243
1.45733
1.19886
1.1944
1.20064
1.22597
1.38891
1.29738
1.33464
1.25639
505.779
397.262
234.266
35.5973
172.542
96.0566
1.47106
1.74949
1.69149
44.9567
4.39928
12.4792
7.68891
1.98097
1.89955
2.0821
2.01061
2.39792
2.10158
5.15313
465.856
1040.99
1313.73
901.563
645.866
1473.21
1208.33
1518.28
992.465
1796.41
1841.05
1923.2
1805.59
1665.74
222.32
246.272
59.001
11.5568
252.719
218.879
30.4909
11.1229
21.3225
6.40288
13.4831
4.23776
9.34717
2.3599
4.42309
10.1074
30.2373
18.3186
37.3077
20.0424
26.568
65.0676
101.776
111.562
56.9189
53.9435
120.644
137.446
62.5565
70.1358
95.1515
96.2224
126.471
103.6
402.43
215.669
290.832
268.983
210.871
189.66
238.933
141.089
220.59
715.429
527.235
1197.71
937.08
1045.65
1487.63
1333.55
1675.82
1590.72
1779.72
1721.03
1.43958
1.40581
1.13097
1.14766
1.15066
1.13509
1.13305
1.15821
1.17534
1.32593
1.28102
1.2634
1.22853
1.21536
1.18981
1.18094
1.16277
1.37061
1.33306
1.35303
1.3793
1.33167
1.36312
1.19326
1.20273
1.21466
1.26413
1.52084
1.37975
1.41075
1.30725
91.6972
191.368
291.456
1.63541
1.94103
1.90125
2.34657
2.31884
23.6963
102.251
7.07124
21.5948
2.58295
2.33069
4.04301
2.96143
8.17239
314.321
604.408
517.991
1137.36
1171.98
1386.98
1801.78
1939.06
1030.61
1658.89
2062.09
2000.49
2022.06
1875.25
223.083
198.722
102.35
249.122
231.568
290.705
234.684
151.645
319.665
395.977
225.189
107.483
175.417
66.7473
124.75
50.767
65.7393
89.0642
64.4649
143.98
110.879
102.987
103.662
113.172
219.895
241.709
259.824
295.887
188.745
181.471
321.609
339.339
206.516
226.597
290.391
283.395
325.104
552.343
456.723
517.291
358.672
458.243
467.902
415.267
503.807
1028.92
827.382
1386.26
1239.65
1595
1516.28
1676.92
1611.66
1.48239
1.42109
1.37562
1.34152
1.16704
1.16276
1.16424
1.17473
1.19092
1.29984
1.27313
1.24799
1.22827
1.20865
1.19439
1.18583
1.29704
1.3165
1.2766
1.30354
1.27943
1.30286
1.20837
1.20934
1.2363
1.33306
1.25262
1.21364
1.68189
1.52485
1.54371
1.41787
1.82074
234.29
140.63
2.19254
2.22268
2.53513
2.61069
3.45174
4.11158
2.55473
26.6773
127.227
31.8961
9.78931
6.28865
28.6219
587.79
389.153
1298.3
1036.17
1760.74
1887.36
2164.76
2178.92
2253.67
2141.09
6.548
33.2072
256.863
280.88
64.4716
236.907
310.731
252.146
417.659
447.125
256.888
338.183
455.197
436.262
454.396
299.526
376.794
278.133
242.578
227.998
388.272
290.866
400.932
332.527
340.51
455.477
503.063
502.834
531.412
448.525
427.724
379.671
594.515
611.916
472.95
491.769
631.945
628.656
821.027
927.447
805.227
768.213
834.114
745.652
807.041
1283.38
1180.92
1453.75
1385.25
1492.83
1430.83
0.89
1.6124
1.49827
1.4598
1.41379
1.35988
1.32535
1.29072
1.18042
1.18375
1.18349
1.18499
1.21486
1.26202
1.24565
1.22496
1.21254
1.19833
1.23199
1.2533
1.23239
1.25515
1.24466
1.26406
1.21323
1.27067
1.28463
1.43051
1.25576
1.28065
1.92549
1.6006
1.67916
1.452
2.26556
2.70911
2.81947
461.689
187.922
2.96661
2.37344
9.07744
4.35886
41.8121
34.9557
22.9779
142.999
231.656
81.2172
1260.5
781.029
1930.43
1712.1
2233.06
2282.46
2497.23
2452.08
3.29615
20.3745
254.277
394.876
41.0812
148.931
413.952
329.855
325.705
438.777
344.941
274.503
601.996
411.685
540.976
576.302
579.235
583.885
581.53
505.802
496.483
622.384
596.169
604.259
626.525
752.573
708.506
724.296
730.448
747.957
716.142
856.427
645.297
696.874
875.809
836.866
790.265
804.123
931.373
930.92
1010.41
1012.38
1199.24
1053.81
1070.23
1307.28
1251.43
1303.58
1258.68
0.781653
0.836944
0.89326
1.51079
1.46198
1.44294
1.40826
1.39154
1.35813
1.31211
1.25438
1.28782
1.38025
1.40434
1.19916
1.18672
1.17878
1.18026
1.21525
1.19532
1.1911
1.2015
1.21512
1.20602
1.22683
1.22244
1.23845
1.22668
1.26203
1.31042
1.40627
1.45634
1.34569
1.83472
2.31637
1.59875
1.90881
2.58833
3.69462
2.85953
3.85867
7.55204
2.04076
913.431
534.878
37.9979
15.0783
152.804
88.4552
402.645
712.729
301.69
1812.64
1579.69
2289.82
2396.35
2719.59
2711.99
2.41568
12.8056
215.278
451.587
24.649
97.8982
464.618
483.316
258.636
289.783
473.267
335.319
544.264
478.4
267.325
344.058
668.465
503.132
566.537
538.411
624.4
679.904
678.172
631.849
661.371
720.642
705.224
708.032
857.209
807.041
771.065
755.909
704.856
847.175
869.514
953.208
892.915
901.718
974.593
988.391
956.677
969.392
999.588
1016.47
1189.09
1142.04
1053.74
1180.36
1155.64
0.769958
0.791156
0.822745
0.89016
0.933636
1.44749
1.36857
1.35775
1.33361
1.33293
1.23058
1.2768
1.25674
1.30489
1.33148
1.31987
1.30181
1.32665
1.28939
1.28725
1.24439
1.2459
1.23091
1.19017
1.18799
1.18891
1.19276
1.22313
1.18838
1.19739
1.20447
1.21108
1.20839
1.22417
1.22854
1.26138
1.35492
1.29524
1.42912
1.57963
1.53343
1.68646
2.20719
2.72243
1.90495
2.30307
3.33429
4.89763
15.2915
11.0089
9.42218
21.5779
75.908
66.0501
1708.26
1162.6
335.909
313.194
802.203
1252.04
769.458
2260.02
2455.65
2827.35
2994.28
1.95538
7.66985
164.03
428.397
14.3166
57.5904
439.854
556.643
313.491
255.489
544.113
424.475
359.279
293.962
242.566
246.838
564.123
543.04
306.537
428.569
351.351
433.53
542.424
627.4
607.832
596.672
558.789
567.562
511.526
708.452
705.117
591.512
515.921
543.235
530.33
719.218
766.8
974.342
1007.66
1004.41
985.591
990.943
1011.65
1029.69
987.056
994.4
1.32363
0.778935
0.786069
0.80611
0.833572
0.868086
0.933824
0.978749
0.801668
0.799767
0.834605
0.826238
0.874335
0.857735
1.20019
1.21132
1.15703
1.16991
1.1094
1.12627
1.05924
1.08142
0.918317
0.89693
0.964483
0.938547
1.01111
1.03354
0.98432
1.29945
1.28969
1.27294
1.28008
1.24856
1.23762
1.26403
1.25785
1.25578
1.24176
1.26506
1.21755
1.22071
1.17622
1.18212
1.22968
1.19291
1.21025
1.19138
1.20776
1.21015
1.20647
1.21302
1.21307
1.22404
1.23404
1.23271
1.23219
1.22933
1.32628
1.2561
1.48491
1.37524
1.57438
1.83004
1.73025
2.04175
2.67112
3.92727
2.4183
3.06042
4.5095
13.6185
162.546
100.918
193.8
42.9583
177.211
457.347
570.001
2306.26
1860.77
1134.34
1875.4
1214.46
2928.92
2984.17
1.54439
4.90718
413.418
102.388
196.381
8.69154
34.8287
563.444
596.224
367.428
280.784
588.914
457.232
638.689
238.569
235.139
227.397
422.465
366.637
215.419
255.264
283.479
236.71
375.728
438.184
399.159
355.191
375.477
329.607
388.093
315.702
400.745
254.026
337.31
237.602
321.496
552.483
990.66
950.128
683.249
938.71
895.183
1.23805
0.974262
1.01851
0.812876
0.82131
0.846405
0.87932
0.917992
0.831091
0.833044
0.857124
0.856488
0.891832
0.885075
1.13581
1.14849
1.09672
1.11245
1.05456
1.0721
1.01268
1.03321
0.931199
0.918307
0.970527
0.992883
0.954473
1.24802
1.23879
1.22897
1.24416
1.23665
1.20137
1.20682
1.19661
1.21977
1.16453
1.17085
1.12434
1.13403
1.23027
1.23169
1.23104
1.2425
1.23514
1.24224
1.24443
1.23753
1.24805
1.26803
1.25054
1.25263
1.24835
1.37948
1.30137
1.31066
1.63843
1.45419
1.74565
2.20435
2.0833
2.59138
3.55199
7.71008
3.1676
4.97179
9.84316
74.023
582.004
733.554
514.016
751.933
199.843
633.334
1112.53
1417.11
1911.82
3117.58
2351.91
1.38895
2.19703
4.32222
234.515
483.902
58.2045
143.022
14.7399
543.123
662.112
344.327
251.182
633.872
390.945
665.126
623.135
511.56
507.988
197.481
214.836
283.722
247.453
179.389
191.873
201.321
179.884
237.741
264.171
251.497
223.47
214.544
199.227
170.667
160.188
142.658
124.376
166.116
118.669
708.848
194.851
506.975
2929.46
1.02149
1.09696
0.926408
0.985571
0.848507
0.863864
0.894207
0.863274
0.866475
0.884278
0.885499
0.911081
0.90984
1.0879
1.10109
1.05086
1.0689
1.01246
1.03227
0.977393
0.999767
0.944639
0.967393
0.937117
1.20964
1.20819
1.20324
1.19714
1.15771
1.17084
1.16293
1.19196
1.1228
1.13472
1.08866
1.10001
1.2324
1.21768
1.2581
1.24778
1.32394
1.29699
1.34225
1.32937
1.27986
1.29675
1.34606
1.3059
1.27877
1.37922
1.29811
1.29843
1.52565
1.52013
1.84116
1.82408
2.618
2.4745
3.95749
2.96825
5.65592
18.1487
4.42118
8.11053
52.211
253.809
504.399
1295.11
1409.97
1181.31
1232.64
1611.4
1964.07
2219.32
29.3453
1.18008
1.22358
2.0183
2.71618
8.90207
376.886
91.6297
184.811
625.209
436.739
230.089
299.216
634.189
654.244
319.838
410.42
664.044
607.527
527.016
419.938
171.518
194.33
187.614
178.237
153.367
157.353
152.089
152.944
156.301
166.759
118.739
122.03
95.7506
96.1671
85.7812
82.9707
112.637
84.265
1.00127
1.06242
0.89109
0.91276
0.955976
0.896782
0.913323
0.914033
0.916627
0.93245
0.934809
1.05517
1.07045
1.01973
1.04279
0.989486
1.0109
0.962429
0.983654
0.957071
1.20643
1.18318
1.18143
1.18428
1.12978
1.14634
1.17926
1.14624
1.09631
1.11461
1.06782
1.08325
1.26475
1.24104
1.24059
1.30514
1.27983
1.41892
1.40555
1.39395
1.42645
1.54865
1.49988
1.50142
1.46407
1.43974
1.37245
1.33802
1.51312
1.45061
1.563
2.04398
1.79352
3.34866
3.48414
2.43042
3.27539
5.4111
5.82875
23.8642
73.3074
19.5336
202.655
416.242
745.535
1413.71
1952.93
1974.7
2294.8
8028.65
136.889
1.10071
17.5459
45.8399
1.21795
1.31663
1.38538
2.23503
3.11672
7.99568
372.871
258.477
642.189
584.504
200.734
254.096
699.519
679.911
276.605
367.955
641.858
559.956
427.465
146.726
170.524
125.894
129.96
129.496
119.651
103.217
106.029
85.9992
89.72
80.5134
81.7627
79.4797
82.2293
1.05253
0.934931
0.980198
1.01472
1.02568
0.932194
0.953247
0.943818
0.951619
0.958048
0.959539
1.03392
1.05668
1.00778
1.03025
0.981664
1.00498
0.98063
1.06155
1.17896
1.17792
1.18516
1.16167
1.13988
1.11595
1.1885
1.11464
1.09515
1.09131
1.25976
1.22244
1.28798
1.32964
1.33367
1.41521
1.40174
1.55816
1.59869
1.65626
1.63116
1.85153
1.84144
1.78056
1.59544
1.55459
1.7557
1.71589
1.89045
1.88064
2.65243
2.54944
6.39137
6.57529
6.1026
4.61555
35.713
26.2984
263.684
163.606
595.329
765.731
1122.8
1978.41
272.157
80.897
134.69
1.25562
1.17153
12.4448
38.6108
1.34733
1.62901
2.20063
2.65809
7.95384
551.222
429.633
715.158
694.727
176.603
232.06
728.889
653.252
532.402
417.855
274.582
125.224
145.494
97.8969
107.161
104.577
86.4608
90.1917
84.361
84.952
85.9956
87.6823
1.11741
1.18074
0.983546
0.997929
1.07043
1.14037
0.976411
0.990909
0.977272
0.989989
0.98931
0.995769
1.05683
1.03962
1.01758
1.03431
1.01199
1.25347
1.09514
1.0789
1.0786
1.1691
1.17901
1.14517
1.23414
1.187
1.15803
1.12808
1.34372
1.33086
1.42557
1.39639
1.51582
1.50267
1.72184
1.67095
1.92248
2.02195
2.53223
2.34021
2.21514
1.99876
1.91846
2.09307
2.08825
2.4176
2.4941
2.4634
5.29583
4.19988
38.8781
13.1329
17.9507
10.3387
284.717
155.282
749.695
519.006
1064.76
943.049
417.517
191.937
282.805
63.0272
124.058
1.43824
1.27656
11.9068
32.5354
2.61018
1.52811
5.39138
676.869
581.299
757.585
774.626
237.914
173.913
144.467
736.552
544.129
440.049
309.731
254.387
102.059
116.778
87.1449
91.0243
85.7304
85.5712
90.9556
89.4906
1.21518
1.32796
1.02709
1.08597
1.14393
1.2504
1.02501
1.05482
1.03563
1.01042
1.04911
1.04778
1.08204
1.05597
1.0743
1.33014
1.28872
1.14467
1.12967
1.14664
1.13444
1.19899
1.26824
1.18083
1.20507
1.17412
1.51869
1.51235
1.44934
1.67111
1.62473
1.86625
1.99405
1.94545
2.34816
2.28526
4.1723
3.21206
3.31299
3.00471
2.81772
2.70824
3.82505
3.86206
3.74861
3.38488
6.42544
23.4603
16.5303
200.052
90.1212
94.4301
585.872
408.496
960.375
783.58
342.163
538.429
645.343
163.783
314.251
48.8088
114.634
1.46357
1.83199
7.57564
31.1464
2.02531
4.61782
794.953
768.17
795.376
775.61
851.094
149.88
174.929
115.956
660.558
503.226
333.851
280.196
171.012
87.3742
97.3333
85.3371
83.4515
91.4511
88.5994
1.37114
1.56528
1.10171
1.16994
1.25613
1.42274
1.11145
1.08651
1.14866
1.14378
1.14105
1.13664
1.12921
1.42664
1.32344
1.19916
1.21034
1.18014
1.23742
1.31058
1.25823
1.31313
1.25206
1.85211
1.75941
1.71796
1.57845
2.28935
2.59665
2.40048
2.61077
2.97117
2.79702
3.89555
3.33899
4.96634
5.46705
5.37734
3.63443
8.24279
8.53616
6.61888
74.7684
38.0563
201.071
182.856
507.495
398.702
798.784
707.503
365.535
547.741
677.074
165.418
323.565
45.0506
113.818
2.5081
1.84093
7.93625
5.334
24.0817
672.117
890.112
880.66
890.138
814.82
864.348
702.822