/*--------------------------------*- C++ -*----------------------------------*\
  =========                 |
  \\      /  F ield         | OpenFOAM: The Open Source CFD Toolbox
   \\    /   O peration     | Website:  https://openfoam.org
    \\  /    A nd           | Version:  8
     \\/     M anipulation  |
\*---------------------------------------------------------------------------*/
FoamFile
{
    version     2.0;
    format      ascii;
    class       volScalarField;
    location    "18000";
    object      k;
}
// * * * * * * * * * * * * * * * * * * * * * * * * * * * * * * * * * * * * * //

dimensions      [0 2 -2 0 0 0 0];

internalField   nonuniform List<scalar> 
4109
(
0.0294944
0.031043
0.0297417
0.0310132
0.0317424
0.0314662
0.0319627
0.030149
0.0330109
0.0325452
0.0325709
0.0333187
0.0298539
0.0316906
0.0324089
0.0337109
0.0334959
0.03351
0.0338681
0.0325537
0.0298961
0.0313772
0.0314084
0.0345923
0.0346237
0.0350342
0.0295897
0.0316266
0.0298773
0.0348557
0.0335083
0.0328099
0.0313514
0.0312918
0.0322218
0.0351654
0.0350532
0.0361743
0.031892
0.0298503
0.0315745
0.0317704
0.0302765
0.0355139
0.0341217
0.0955015
0.0476976
0.0334849
0.0329026
0.0312278
0.0322423
0.0358539
0.0366372
0.0379046
0.033611
0.0317954
0.0293668
0.0318968
0.0323664
0.0331425
0.032878
0.121505
0.0367272
0.0351031
0.0344442
0.0413685
0.0870575
0.0337479
0.0327674
0.0324779
0.0393814
0.0373379
0.0425474
0.0413715
0.0411864
0.0341541
0.0340535
0.0326716
0.0311607
0.0328945
0.0325822
0.0329289
0.0334803
0.0336154
0.038434
0.0452486
0.100137
0.131039
0.132408
0.0379105
0.0375049
0.0358032
0.0351128
0.0345493
0.0379189
0.0665852
0.033731
0.032553
0.0427003
0.0410166
0.0398859
0.0429949
0.043713
0.0432582
0.0434024
0.0352869
0.0347657
0.0339323
0.0321073
0.0341318
0.038843
0.0333685
0.0338816
0.0341181
0.0346739
0.138193
0.0527397
0.0664459
0.089329
0.140019
0.137569
0.0432812
0.0397092
0.0385823
0.036838
0.0361073
0.0354207
0.0344089
0.0669142
0.0343767
0.0338229
0.043123
0.0417124
0.0448116
0.0440366
0.0455689
0.0443332
0.035968
0.0356533
0.0355737
0.0337214
0.034815
0.0399891
0.0339471
0.0345554
0.0350241
0.0352687
0.124847
0.0734866
0.140777
0.0934781
0.143831
0.0503993
0.0405643
0.0394826
0.0376552
0.0368704
0.0361797
0.0354503
0.0343711
0.0614684
0.0330963
0.0426388
0.0412535
0.0456743
0.0437598
0.046447
0.0468461
0.0476455
0.0371339
0.0366137
0.0363303
0.0345556
0.0357999
0.0412131
0.0347742
0.0354559
0.0356977
0.0363704
0.085739
0.156855
0.0884667
0.147535
0.147757
0.0511639
0.038783
0.0397309
0.0378945
0.0361463
0.0370806
0.0356197
0.0673073
0.0340211
0.0409557
0.0420216
0.0451887
0.0433404
0.0464316
0.0480914
0.0477229
0.0507254
0.0379033
0.0376177
0.0376497
0.0361747
0.0360477
0.0414335
0.035504
0.0361264
0.0367111
0.0370907
0.088305
0.158456
0.154124
0.0931478
0.157214
0.0507765
0.0388934
0.0400826
0.0375246
0.0364906
0.0688105
0.0349002
0.0411787
0.0424252
0.0445454
0.0436488
0.0459791
0.0480246
0.0491898
0.0511371
0.053491
0.0391801
0.0385742
0.0383981
0.0372315
0.0369123
0.0424609
0.0370112
0.0362537
0.0400884
0.0375824
0.0382753
0.0848937
0.166444
0.0967904
0.161538
0.163426
0.0516306
0.0392031
0.0399782
0.0378984
0.07222
0.0353612
0.0415114
0.0424202
0.0449574
0.0439934
0.0463103
0.0473383
0.0495491
0.0514384
0.0529531
0.0570317
0.0401948
0.0393394
0.0387303
0.0410629
0.0372225
0.0428822
0.0374982
0.0414013
0.0391362
0.0387238
0.173585
0.0846188
0.168895
0.100558
0.173551
0.052219
0.178178
0.0390003
0.0403526
0.0738823
0.0361638
0.0414869
0.0426744
0.0450577
0.0440034
0.0466197
0.0476818
0.0489256
0.0514043
0.0533722
0.0562288
0.0566062
0.0607034
0.0393255
0.0407661
0.0390695
0.0422313
0.042458
0.0379198
0.0437158
0.0391343
0.0404115
0.0397641
0.0849722
0.181516
0.175598
0.0991206
0.179866
0.0529384
0.192185
0.184677
0.201925
0.165711
0.185362
0.156429
0.0883331
0.0370751
0.0403176
0.0423366
0.0432171
0.0439445
0.0454341
0.0467571
0.0477076
0.0491797
0.0578432
0.0504672
0.0532129
0.0559857
0.0613238
0.0648614
0.0632742
0.0693733
0.0416362
0.0411542
0.043447
0.0438744
0.0414032
0.039233
0.0452223
0.0398999
0.0409902
0.0874924
0.194263
0.181032
0.0528669
0.291805
0.259642
0.201859
0.172462
0.195364
0.221414
0.0754763
0.0759825
0.0811417
0.159978
0.149359
0.151417
0.148046
0.159317
0.150565
0.0387246
0.045236
0.0452815
0.0459869
0.0606697
0.0470051
0.0479489
0.0493293
0.0507211
0.0577031
0.0522391
0.0552907
0.0651246
0.0617056
0.0681428
0.0678822
0.0765104
0.0808355
0.0429087
0.0436708
0.0450706
0.0450186
0.0427835
0.0421231
0.0402973
0.0449205
0.0414816
0.0915134
0.2184
0.302446
0.258241
0.177273
0.194673
0.221846
0.0795141
0.0814118
0.0869646
0.0826626
0.085638
0.132775
0.139184
0.139541
0.147218
0.160072
0.240377
0.11926
0.0441222
0.0474638
0.0471607
0.0600608
0.0611583
0.0491738
0.0491162
0.0506094
0.0523905
0.05714
0.0540081
0.0657927
0.0637523
0.0692208
0.0721347
0.0768433
0.0786503
0.0456585
0.0449447
0.0423631
0.0475729
0.0465223
0.0439286
0.0434544
0.0497167
0.0429093
0.041791
0.0498497
0.0973039
0.294377
0.324317
0.260233
0.176716
0.19758
0.225335
0.0820357
0.0895074
0.0979475
0.087682
0.0919248
0.122685
0.10927
0.0871524
0.0904033
0.129305
0.137202
0.147586
0.158635
0.257658
0.211403
0.0650508
0.0491774
0.0496753
0.0593154
0.0612047
0.050286
0.0506705
0.0523627
0.0541236
0.0560351
0.0663928
0.0639626
0.0696927
0.0728347
0.0749041
0.0782349
0.0475254
0.0496678
0.0476117
0.0438727
0.043934
0.0454458
0.0467594
0.0447534
0.0509279
0.0485202
0.16991
0.222045
0.0434372
0.0412712
0.304913
0.257193
0.255513
0.326934
0.265677
0.17739
0.199507
0.230036
0.0861815
0.0808368
0.0934813
0.0994577
0.0972087
0.107371
0.118065
0.0920539
0.0961632
0.127289
0.134558
0.147115
0.162411
0.318245
0.273411
0.319542
0.0649486
0.0524507
0.0511496
0.0581017
0.0604347
0.0523506
0.0522429
0.0538896
0.0560982
0.0628431
0.0655458
0.0683769
0.0715453
0.07466
0.0773511
0.0791724
0.05073
0.0507087
0.0453181
0.0450457
0.0462647
0.0476403
0.0493121
0.0529671
0.0500676
0.0451154
0.0510817
0.0557014
0.31422
0.260681
0.243283
0.192409
0.191702
0.331402
0.261553
0.17987
0.190323
0.209855
0.0906919
0.0845432
0.0826235
0.117015
0.102104
0.106039
0.0975871
0.101434
0.125649
0.133304
0.149907
0.164021
0.0870257
0.350381
0.329243
0.352834
0.0777267
0.0551247
0.0538544
0.0581752
0.0604453
0.0540305
0.053913
0.0560533
0.0628485
0.0654781
0.0682847
0.0713625
0.0739964
0.0759228
0.0790992
0.0798321
0.0532129
0.054194
0.0469656
0.046971
0.0482613
0.0496738
0.0508926
0.0548004
0.0517955
0.0508242
0.0469149
0.0479015
0.311106
0.166955
0.230566
0.222495
0.192826
0.334703
0.262779
0.175032
0.195203
0.215467
0.241861
0.0956993
0.0839858
0.0893884
0.0840318
0.103494
0.114226
0.108682
0.12574
0.138973
0.152621
0.160453
0.0879202
0.386857
0.371431
0.405535
0.0809
0.059079
0.0559638
0.0604228
0.0579751
0.0560394
0.0561971
0.062665
0.0653808
0.0709956
0.0679701
0.0733245
0.0758572
0.0759436
0.0787375
0.0821515
0.056871
0.056096
0.0573878
0.04892
0.04873
0.0508966
0.0524992
0.0535602
0.0530926
0.0487641
0.0504337
0.316673
0.255876
0.144123
0.150031
0.205882
0.197877
0.174268
0.271596
0.331827
0.178324
0.194489
0.211276
0.236283
0.101053
0.0855576
0.0936483
0.0868774
0.0896803
0.110237
0.114315
0.106576
0.127834
0.140724
0.150769
0.164765
0.114239
0.425741
0.426213
0.439756
0.0927047
0.0628292
0.0580681
0.0606818
0.0582861
0.0580182
0.06324
0.0653627
0.0704025
0.0681896
0.0741607
0.0760722
0.0781837
0.0808139
0.0838558
0.060124
0.0598697
0.0596107
0.0555849
0.0509802
0.0510868
0.0525645
0.0534746
0.0544421
0.0507346
0.0545751
0.332287
0.280528
0.242757
0.220205
0.125446
0.133328
0.147221
0.189091
0.178081
0.162938
0.112964
0.273096
0.326601
0.331985
0.177865
0.194801
0.225571
0.211583
0.0993951
0.0881183
0.0924774
0.0893793
0.112206
0.119609
0.105151
0.165273
0.130088
0.137725
0.152394
0.113137
0.473101
0.482245
0.5053
0.0599302
0.0994879
0.0645929
0.0611476
0.0607655
0.0666949
0.0651656
0.0716397
0.0720622
0.0693426
0.0750062
0.0783801
0.0814371
0.0646472
0.0625503
0.0620266
0.0576443
0.0568252
0.0527315
0.0522501
0.0541413
0.0559709
0.0525818
0.0562078
0.0689927
0.0741642
0.276864
0.245261
0.214982
0.196168
0.120339
0.135278
0.150085
0.170769
0.160963
0.108479
0.0999264
0.0926451
0.0825023
0.0790683
0.316712
0.265745
0.316411
0.271536
0.166291
0.179113
0.192034
0.220965
0.0985759
0.0905874
0.0934056
0.120369
0.112729
0.105503
0.102385
0.152049
0.151899
0.129711
0.141208
0.136824
0.561926
0.529967
0.526423
0.0666896
0.101155
0.0631769
0.0643514
0.072165
0.0683713
0.0746815
0.0773103
0.0802706
0.0648863
0.0643759
0.059975
0.0586213
0.0573938
0.0549059
0.0544396
0.0561992
0.0607758
0.0546782
0.0761813
0.0696918
0.0729739
0.240222
0.219898
0.193322
0.175527
0.120687
0.137632
0.147274
0.15429
0.11371
0.0996839
0.102293
0.0776867
0.0909418
0.0802071
0.0844412
0.270056
0.251219
0.237679
0.216712
0.160549
0.174382
0.199627
0.149446
0.0968165
0.0934655
0.117314
0.108098
0.113227
0.106384
0.100771
0.142453
0.14388
0.130359
0.109725
0.615723
0.595863
0.585943
0.083502
0.106015
0.0673846
0.0611303
0.0717543
0.0755897
0.0788877
0.0673075
0.0623843
0.0612879
0.0601526
0.0581436
0.0566673
0.0559436
0.05862
0.0562867
0.0741112
0.0703321
0.211557
0.215162
0.197772
0.17387
0.157331
0.127472
0.135488
0.140605
0.116536
0.110487
0.102395
0.078811
0.0817585
0.0956394
0.0849412
0.0893226
0.224162
0.214856
0.211725
0.196732
0.140615
0.162656
0.171076
0.151435
0.194424
0.0963316
0.12077
0.11463
0.111044
0.10422
0.0994697
0.123612
0.130032
0.131213
0.115762
0.730894
0.687006
0.732744
0.133465
0.0708372
0.079073
0.0747131
0.0781527
0.0650864
0.063498
0.0619533
0.0605187
0.0588308
0.0584205
0.0597676
0.058753
0.0741442
0.0679301
0.194005
0.195429
0.176158
0.155573
0.1426
0.125506
0.129216
0.116374
0.108725
0.101897
0.0777907
0.0812213
0.0959921
0.0856277
0.0902391
0.196333
0.189997
0.172801
0.126195
0.132678
0.142127
0.150054
0.175249
0.112162
0.107061
0.101981
0.117577
0.11505
0.122635
0.12614
0.855463
1.17249
0.321337
0.0750209
0.0880369
0.0781152
0.0665036
0.0650156
0.0628517
0.0610206
0.0603374
0.0622001
0.0711032
0.0691893
0.175154
0.173412
0.156032
0.141084
0.130885
0.119481
0.111175
0.103882
0.0975483
0.0744834
0.0782483
0.0918788
0.0823183
0.0868735
0.171672
0.173263
0.15635
0.127904
0.133963
0.140934
0.12328
0.155992
0.108651
0.104317
0.112294
0.113359
0.118378
0.198923
1.66892
1.61397
0.579583
0.0801062
0.122171
0.0672455
0.0655821
0.06271
0.0633863
0.0690072
0.0726282
0.0706923
0.156781
0.156541
0.14143
0.129762
0.12095
0.112623
0.105219
0.0989907
0.0758742
0.079843
0.0932562
0.0837555
0.0884257
0.154182
0.154669
0.142085
0.125249
0.129737
0.118804
0.141626
0.106208
0.10896
0.109898
0.112766
4.05682
0.331398
2.33272
2.4795
1.16915
4.49704
0.0682296
0.0658028
0.0670721
0.0668077
0.0772121
0.0734344
0.0713263
0.139985
0.140841
0.130337
0.120652
0.112196
0.10549
0.0990715
0.0773421
0.0806352
0.0940963
0.08502
0.088967
0.13751
0.137775
0.13022
0.119148
0.112973
0.127975
0.130351
3.27186
3.60151
0.635937
3.59796
3.58054
4.88532
3.96702
6.43328
0.0691853
0.0659336
0.0704063
0.070609
0.0943093
0.0744883
0.0709335
0.13114
0.130744
0.120701
0.112466
0.105464
0.0995873
0.0780783
0.0817625
0.094423
0.089892
0.0856633
0.129611
0.122246
0.113346
0.120802
0.12326
0.122457
2.21314
2.86062
3.18079
1.20752
4.51377
3.4815
6.20015
6.25892
0.070938
0.0705048
0.0754179
0.134882
0.075358
0.07157
0.11844
0.118977
0.11166
0.104913
0.0994222
0.0779733
0.0825346
0.094641
0.0904024
0.0862713
0.122343
0.115437
0.116253
0.11843
0.116892
0.116214
1.93742
1.80999
2.49659
2.78423
3.44212
5.86296
4.10783
3.02881
5.86376
6.05936
0.0731588
0.0746849
0.0803175
0.074493
0.0754619
0.0775513
0.114041
0.106965
0.102067
0.0968118
0.0814784
0.0818165
0.093736
0.0890156
0.0867671
0.115173
0.112629
0.113614
0.1119
0.110957
1.52358
1.47787
2.16402
2.39527
6.31062
2.98058
5.5952
5.42185
3.6832
2.58983
5.49519
5.85209
0.0749058
0.0774264
0.0775024
0.0788067
0.0819799
0.109998
0.105375
0.101391
0.097038
0.0836362
0.0848376
0.0936754
0.0902976
0.0875764
0.109164
0.107279
0.105299
6.1452
1.19367
1.20129
1.84526
1.98305
5.89539
2.58129
5.25536
5.1551
4.96529
3.23834
2.13137
5.09642
5.64057
0.0772139
0.0780765
0.0802054
0.0816228
0.104231
0.10242
0.0998781
0.0967539
0.0841731
0.0862862
0.0938316
0.091067
0.0885802
6.73637
5.57111
0.93401
0.961474
1.51147
1.46827
5.43172
2.2256
5.10367
4.80234
4.70484
4.49114
2.74413
1.57443
4.6544
5.4222
7.73296
6.19691
5.00113
0.725787
0.737754
1.09826
0.599051
4.94327
1.88819
4.96097
4.68344
4.35593
4.24508
3.98874
2.11206
0.670539
4.12969
5.19127
8.43981
7.33084
5.61361
4.43757
0.548975
0.491939
0.398218
4.42922
1.55359
3.49768
4.65095
4.26085
3.91302
3.76517
3.4251
1.04658
3.41833
9.75368
7.95935
6.86655
4.99698
3.8722
0.367085
0.127301
3.85897
1.36377
2.74132
3.05175
4.32781
3.83819
3.46215
3.23642
2.71285
2.17251
11.2503
8.99338
7.49123
6.33885
4.35525
3.27653
0.0832282
3.12207
1.42688
2.37747
2.63008
3.98905
3.40478
2.97482
2.5783
1.51231
11.9108
11.249
8.11725
6.99959
5.69169
3.67438
2.56201
1.71899
1.3082
1.27815
2.0577
2.21942
3.62342
2.93469
2.379
1.48407
12.157
11.602
11.0357
7.17277
6.48461
4.91497
2.88608
1.35721
1.48533
1.19869
1.14333
1.76382
1.8086
3.20543
2.35881
1.39293
8.17405
12.1519
11.0709
10.6054
6.18267
5.89761
3.95885
1.65555
1.59759
1.38047
1.09208
1.01809
1.48099
1.38873
2.66748
1.41476
6.91183
8.05219
11.8916
10.3357
9.95321
5.15148
5.09629
2.58094
1.60919
1.48252
1.27299
0.984468
0.89589
1.19419
0.949153
1.76071
6.28283
6.61678
7.70265
11.4233
9.4891
9.03207
4.29992
3.43152
1.51209
1.49313
1.36502
1.15979
0.87046
0.763202
0.869326
0.468762
6.29935
6.09968
6.19682
7.1814
10.7359
8.57131
7.69
3.14187
1.33094
1.40528
1.37476
1.24211
1.03575
0.740076
0.587386
0.403772
6.85395
6.09781
5.78469
5.705
6.53264
9.79436
7.5757
5.36036
1.42722
1.21902
1.29607
1.25104
1.10837
0.889712
0.566444
0.262973
8.06807
6.54441
5.77207
5.38001
5.15886
5.7648
8.3693
6.01939
2.64724
1.27943
1.11041
1.18127
1.11654
0.952077
0.691104
0.250252
11.9806
7.93551
6.12272
5.36225
4.90108
4.54583
4.85263
5.79894
3.54038
2.30468
1.14511
1.00098
1.05553
0.959439
0.7415
0.334381
11.7323
11.9948
7.58627
5.63139
4.88117
4.34031
3.82029
3.80616
4.95578
3.08105
1.99871
1.0201
0.885029
0.907579
0.747941
0.371146
11.0695
11.4265
11.7386
7.08167
5.08385
4.319
3.65438
2.88896
5.13992
4.64463
2.64871
1.71435
0.897676
0.752539
0.706805
0.377029
9.76987
11.0586
10.8585
11.2708
6.48339
4.4695
3.63099
2.76386
5.23702
4.71758
4.32284
2.23239
1.43929
0.764133
0.576798
0.348454
8.42116
8.97932
10.8022
10.0076
10.5399
5.80331
3.73726
2.7297
5.56621
4.78097
4.29228
3.98427
1.81868
1.15984
0.587301
0.259314
7.78169
7.95738
8.07691
10.2726
8.93485
9.41515
4.99509
2.78369
5.85975
5.12664
4.33434
3.86739
3.61863
1.39776
0.842413
0.262759
6.75365
7.37524
7.52418
7.11448
9.44904
7.62331
7.5414
3.87644
6.65221
6.26605
5.42431
4.67825
3.89331
3.43164
3.19915
0.951819
0.383024
6.13645
6.21803
6.9012
7.08003
6.09762
8.26983
6.08137
5.09143
5.08234
6.44246
5.93838
4.97199
4.22039
3.44421
2.95752
2.65531
0.456105
6.2489
5.56154
5.63688
6.35882
6.58553
5.0715
6.73927
3.75073
3.40935
4.53493
4.68574
6.22492
5.56952
4.49936
3.74166
2.95738
2.37279
1.72602
5.84672
4.9903
5.02001
5.72176
6.01871
4.29296
5.8774
2.94525
2.06763
4.31047
4.0262
4.25847
6.00327
5.16709
3.99687
3.21265
2.36043
1.40384
2.44229
3.5628
5.39513
4.42609
4.37663
4.94925
5.22851
3.38288
2.53829
1.63352
3.82461
3.54576
3.81492
5.77793
4.71748
3.43158
2.55243
1.35592
1.98641
3.13538
4.91541
3.8612
3.69316
3.99725
3.51357
2.18639
1.2841
3.37755
3.091
3.34974
5.5464
4.18041
2.7125
1.43976
1.61972
2.74893
4.40898
3.2665
2.90137
2.62677
1.85777
1.00831
2.95777
2.6463
2.8322
5.30101
3.44656
1.48564
1.31469
2.39052
3.8438
2.55488
1.67946
1.55599
0.786212
2.54663
2.17953
2.16829
2.14597
1.05073
2.04467
3.11366
1.35933
1.36855
0.596185
2.11094
1.60589
1.04415
0.805801
1.68131
1.7308
0.399633
1.56801
0.662539
0.539058
1.23211
0.0959289
0.646663
0.148619
0.474827
0.0862871
0.084341
0.0856278
0.0856375
0.0870848
0.0868569
0.0875061
0.0875385
0.0882495
0.0827381
0.0838419
0.0842684
0.085468
0.0857856
0.086933
0.0875458
0.0918809
0.0933114
0.0946487
0.0968901
0.0983418
0.0884445
0.0892436
0.0882734
0.0884321
0.0887418
0.0883792
0.0896063
0.089337
0.090377
0.101028
0.102182
0.0814156
0.08252
0.0831421
0.0842319
0.0848572
0.0858043
0.0867988
0.0878894
0.0888484
0.0898277
0.09093
0.0923019
0.094104
0.0955565
0.0986398
0.100128
0.105621
0.106366
0.0902313
0.0911045
0.0921596
0.0931225
0.0944975
0.0959418
0.0983182
0.089636
0.0900937
0.0896198
0.0896329
0.0905178
0.0898749
0.0918757
0.091356
0.0927016
0.0981488
0.0999618
0.110605
0.112274
0.10486
0.104615
0.109688
0.0804113
0.0814371
0.0823019
0.083311
0.084261
0.08526
0.0864635
0.0873953
0.089125
0.0902098
0.0916742
0.0929602
0.0969538
0.0983651
0.101496
0.10263
0.107155
0.108409
0.113536
0.115677
0.12202
0.122137
0.129115
0.0910777
0.0918019
0.0927627
0.0937811
0.0952513
0.0908135
0.0910863
0.0911649
0.090853
0.0924218
0.0916467
0.09512
0.0940639
0.0933456
0.0956637
0.0993149
0.0995448
0.104584
0.106211
0.125742
0.113777
0.1214
0.110558
0.113451
0.0800086
0.0809388
0.0820797
0.0830788
0.0843386
0.0852573
0.086747
0.0876482
0.0892644
0.0902212
0.0924672
0.0945926
0.102698
0.099886
0.106144
0.108628
0.113092
0.114578
0.119444
0.129161
0.134816
0.135662
0.149381
0.152007
0.145707
0.154224
0.154817
0.195969
0.0920556
0.092814
0.0936348
0.0945889
0.097469
0.096225
0.0920966
0.0921329
0.0927791
0.0923017
0.0952382
0.0942257
0.0934812
0.0996736
0.0983497
0.0959518
0.0983947
0.100289
0.248534
0.214635
0.307406
0.104697
0.105007
0.110539
0.112771
0.127323
0.12942
0.165269
0.144535
0.121876
0.127906
0.0807318
0.0813209
0.0829456
0.0835622
0.0853536
0.0858993
0.0878797
0.0886105
0.0918009
0.0910546
0.0953672
0.0967463
0.101605
0.103936
0.113423
0.111626
0.120837
0.129665
0.136631
0.137413
0.14925
0.714088
0.702121
0.493601
0.162226
0.171046
0.186318
0.192624
0.202468
0.217754
0.218351
0.491164
0.292808
6.43656
7.00306
6.85402
6.53998
7.16312
7.18508
6.9561
6.58273
0.093196
0.0935575
0.0945592
0.0954938
0.0971855
0.0961145
0.0934789
0.0932972
0.0952796
0.0944605
0.0939421
0.1019
0.100516
0.0992003
0.0980619
0.096706
0.0996337
0.105656
0.10157
0.104955
6.03538
5.06793
1.86189
1.31909
0.772534
0.174751
0.249486
0.305514
0.564736
0.112796
0.11314
0.114144
0.113687
0.125758
0.12784
0.139653
0.136016
0.163998
6.2288
6.9197
4.54338
7.14347
7.20531
7.18993
5.44499
6.07826
6.16723
7.17384
0.0869453
0.0845305
0.0886635
0.0873126
0.0910641
0.0900631
0.0936813
0.093516
0.0966488
0.0964193
0.10043
0.100411
0.108133
0.111145
0.116713
0.115721
0.121437
0.146854
0.124596
0.159684
0.211097
0.203464
0.247581
0.24874
0.243932
1.27986
1.78616
3.41978
2.48489
1.29566
0.996438
0.356755
0.394836
0.498969
0.505175
1.02142
0.596107
0.57999
3.88648
6.05848
4.96637
5.26916
6.15799
6.68962
6.92224
6.91545
4.97647
4.92441
7.12834
7.08234
5.57517
5.79453
6.38213
7.01958
6.5996
6.9646
0.0944606
0.0946747
0.0955557
0.0968516
0.0972286
0.0962144
0.0957139
0.0950039
0.0946379
0.103986
0.102515
0.101115
0.0999382
0.0988844
0.0978917
0.0975096
0.100508
0.100886
0.1048
0.105293
0.109734
0.104606
2.68303
4.52669
3.52979
5.91334
4.61545
1.67611
2.7057
1.43458
0.752956
0.113146
0.609529
0.199895
0.348299
0.256029
0.123157
0.120153
0.129311
0.124236
0.132189
0.130883
0.149109
0.143145
0.200181
6.24598
7.08709
5.94621
4.28937
4.70204
3.65262
7.32263
7.42603
7.24634
5.99564
4.52806
5.61455
0.188879
0.103201
2.11126
0.646638
0.135761
0.10538
0.124268
0.105194
0.119329
0.104635
0.117816
0.112401
0.10987
0.121419
0.120446
0.143014
0.175953
0.164939
0.201345
0.283271
0.252552
0.336669
0.661761
0.377475
0.40752
0.903208
1.02977
0.552134
0.485784
0.65594
0.633643
0.79878
0.799598
1.9283
2.54653
3.68248
2.97784
2.08538
1.51561
1.16537
1.16967
1.75754
1.31102
1.42959
4.93818
4.32162
5.15438
6.16919
5.86753
6.84948
6.64552
7.10504
7.01136
7.05386
5.22014
5.77673
6.98967
7.00377
6.8453
6.81361
6.51176
0.0976854
0.0956964
0.0957572
0.0966032
0.0971998
0.0964498
0.0961673
0.0983377
0.106113
0.104606
0.103011
0.101721
0.100582
0.0994377
0.0988005
0.0978643
0.108095
0.10574
0.107976
0.110326
0.108803
0.110229
0.10144
0.101336
0.101778
0.103446
0.114058
0.108339
0.110026
0.105443
4.62894
4.09861
3.03537
0.983736
2.53491
1.74108
0.119497
0.132921
0.131534
1.09817
0.262643
0.56099
0.364498
0.143464
0.139805
0.152488
0.148581
0.176119
0.165133
0.276783
4.41572
6.61345
7.22202
6.23324
5.30777
7.45466
3.3577
3.9059
2.72671
7.66021
7.44822
6.66552
5.50158
4.00021
4.74345
4.74
1.19322
0.340575
4.5667
3.58414
0.686556
0.335007
0.521624
0.254475
0.401556
0.216263
0.342348
0.18256
0.247492
0.445973
0.779972
0.555139
0.9629
0.62098
0.758363
1.34632
1.67203
1.83007
1.18534
1.19745
1.86094
2.09383
1.24463
1.37538
1.67305
1.58406
1.95979
1.67445
3.94899
2.76608
3.31099
3.14307
2.68363
2.53677
2.90873
2.1901
2.70128
5.38833
4.5242
6.74379
6.05926
6.36823
7.07476
6.97253
6.92193
7.00142
6.52609
6.61391
0.10997
0.108458
0.0970661
0.0982453
0.0975382
0.0969995
0.097014
0.0985754
0.0997014
0.104782
0.102922
0.102217
0.10075
0.100236
0.0991504
0.0988472
0.0980961
0.106734
0.104837
0.105984
0.107102
0.105414
0.106762
0.101129
0.101727
0.103035
0.10565
0.120801
0.113479
0.114891
0.108595
1.79888
2.65229
3.52795
0.129591
0.142657
0.141355
0.163982
0.159546
0.784143
1.83911
0.360297
0.709463
0.199434
0.182496
0.273995
0.236289
0.369544
3.59586
5.12865
4.76269
6.87798
6.98494
7.36231
7.79218
7.7179
2.65548
3.6039
7.40703
6.47074
5.72637
4.05221
4.76355
4.77074
2.08615
4.79471
5.1164
5.63871
3.79037
2.39494
5.7865
6.27724
3.38026
1.73728
2.62091
1.23135
2.01879
1.02326
1.35986
1.58043
1.20707
2.18774
1.79527
1.73114
1.70388
1.82587
2.77662
2.87106
2.99922
3.3161
2.53553
2.37398
3.40266
3.5911
2.5747
2.82584
3.30473
3.11562
3.49691
4.70719
4.18904
4.54804
3.71766
4.26366
4.23164
3.9901
4.41078
6.37107
5.70627
6.97037
6.81798
6.91183
6.92606
6.35232
6.45657
0.111828
0.109318
0.107507
0.106011
0.0985781
0.0984299
0.09874
0.0995347
0.100678
0.103867
0.102439
0.101764
0.100652
0.100238
0.0994199
0.0994641
0.103702
0.104573
0.103088
0.104272
0.103446
0.104478
0.102067
0.10217
0.10403
0.109986
0.105681
0.102601
0.130501
0.121546
0.122575
0.115447
0.138642
3.1576
2.29749
0.15476
0.15151
0.184793
0.179557
0.263533
0.313117
0.249425
0.790919
2.07681
0.956391
0.499768
0.41701
0.863427
5.07805
4.23258
7.38265
6.75864
7.96462
7.84902
7.56499
7.28702
6.88204
6.53679
0.210287
0.705221
4.68031
5.55237
1.28223
3.89448
5.77808
5.47012
6.3083
6.05837
5.52897
6.2088
5.92864
5.31238
5.37355
3.5565
4.28991
3.29619
2.9201
2.898
4.23712
3.34013
4.18602
3.51518
3.69374
4.28974
4.65811
4.60098
4.71091
4.25143
4.11759
3.76097
4.9199
5.09272
4.25958
4.44556
5.11534
5.01062
5.81494
6.07983
5.6346
5.50594
5.80983
5.48543
5.69685
6.82116
6.70131
6.68377
6.72482
6.07281
6.17628
0.0882895
0.1092
0.112428
0.111046
0.109207
0.106993
0.105569
0.104043
0.0996427
0.0998233
0.100168
0.100278
0.102635
0.102369
0.101658
0.10091
0.10042
0.10006
0.101264
0.102194
0.101461
0.102485
0.102115
0.103026
0.102248
0.10626
0.107076
0.116217
0.105179
0.106738
0.142507
0.126419
0.130099
0.117156
0.159366
0.186589
0.168166
4.47189
2.7941
0.250585
0.210461
0.491442
0.410099
1.21284
1.04788
0.887443
2.32603
3.05973
1.66103
7.34179
6.2277
8.09796
8.21456
7.96107
7.56306
7.10416
6.74543
0.147751
0.452848
4.10859
6.35619
0.843916
2.38474
6.33669
6.15553
5.94286
6.54575
6.07197
5.58292
6.94257
6.2369
6.87144
6.45784
6.04478
6.03674
5.64056
4.70225
4.75386
5.93712
5.4175
5.16835
5.39456
5.61149
5.49978
5.75637
5.68174
5.63643
5.58248
5.88752
5.13211
5.41443
5.9231
5.91101
5.63864
5.73427
6.03627
6.07626
6.29381
6.22846
6.63637
6.40273
6.38132
6.46185
6.51016
5.7673
5.9203
0.0813019
0.0851348
0.089478
0.108365
0.111028
0.110167
0.108877
0.108317
0.106996
0.105156
0.102738
0.104171
0.107606
0.108723
0.101445
0.100386
0.0997177
0.0998973
0.100681
0.0999319
0.0998275
0.100273
0.100896
0.100628
0.101576
0.101466
0.102139
0.103061
0.105519
0.108938
0.114468
0.117258
0.110713
0.139009
0.163005
0.125635
0.14239
0.177384
0.231603
0.200919
0.251767
0.390295
0.285356
6.41014
5.35235
1.1229
0.823445
2.53332
1.97968
4.38881
5.80268
3.95259
8.41819
8.36879
8.51003
8.0316
7.70996
7.19634
0.132683
0.319886
3.27302
6.21647
0.558812
1.58589
6.09929
6.91297
5.33415
5.50433
6.67878
5.91884
6.8443
6.6116
5.25082
5.76538
6.50722
6.38554
6.5063
6.22902
6.43523
5.79593
5.99379
6.12475
6.12156
5.87706
5.92095
5.76593
5.7962
5.75979
5.65388
5.69987
5.57779
5.42389
5.4171
5.9467
5.93591
5.96748
5.85141
6.00727
5.95818
5.98523
5.86742
5.99541
6.2328
6.2958
6.00677
5.58523
5.75074
0.0798502
0.0815296
0.0836287
0.0882471
0.0916076
0.107494
0.107288
0.106747
0.105892
0.105941
0.101945
0.103819
0.103085
0.104861
0.105327
0.105129
0.104386
0.105593
0.103394
0.103374
0.101402
0.101475
0.103491
0.100556
0.100017
0.100393
0.100161
0.101777
0.10029
0.100536
0.100848
0.101112
0.101414
0.101963
0.102343
0.105686
0.111399
0.10772
0.11563
0.124365
0.12208
0.130382
0.158459
0.182905
0.142579
0.161901
0.211474
0.277922
0.677797
0.612898
0.483312
0.913004
1.83434
1.79567
8.61821
7.78687
4.2543
4.43125
6.75199
7.92073
6.75639
9.19768
8.71929
8.49254
8.05691
0.125286
0.244872
2.4802
5.11476
0.385946
1.08098
5.20517
7.04066
5.64777
5.15751
6.79136
6.34764
5.6637
5.30651
4.96196
4.9402
6.01072
6.1262
5.20825
5.65344
5.40156
5.83875
5.7597
5.79517
5.78942
5.42196
5.45119
5.01487
5.00208
4.89212
5.17021
4.77347
4.62993
4.06475
3.6995
4.36652
4.45188
5.39103
5.81396
5.81709
5.30354
5.40261
5.45395
5.40801
5.04287
5.47742
0.104868
0.0799018
0.0807014
0.0819057
0.0839198
0.0863158
0.0905773
0.0941298
0.0809467
0.0809733
0.0825053
0.0822589
0.0844169
0.08374
0.0994838
0.0998619
0.0976153
0.0980872
0.0956138
0.0962185
0.0934576
0.0942581
0.0866417
0.0856738
0.0889931
0.0876981
0.0912485
0.092106
0.0898989
0.104495
0.103983
0.103446
0.103806
0.102818
0.102498
0.103224
0.102315
0.102511
0.101934
0.103083
0.100439
0.100736
0.0985461
0.0988952
0.102416
0.100982
0.102222
0.100842
0.101601
0.101814
0.101609
0.101807
0.102011
0.102695
0.103011
0.103097
0.102796
0.103468
0.109286
0.105128
0.11875
0.112473
0.123755
0.137597
0.132886
0.148684
0.186291
0.235149
0.167954
0.200771
0.292007
0.63516
3.15471
2.39156
3.22865
1.46462
3.14183
5.21404
6.01908
9.54045
9.41453
8.34186
9.47467
8.53827
9.64829
8.86246
0.118489
0.195512
4.60845
1.71761
2.76448
0.285148
0.752204
6.18859
6.87944
5.79491
5.20487
6.58336
6.13319
6.62715
4.77331
4.68337
4.68905
5.2787
5.18844
4.42673
4.66449
4.67999
4.42977
4.85235
4.99539
4.53547
4.47186
4.07643
4.01888
3.53976
3.6096
3.83251
2.8645
2.87759
2.57347
2.58381
3.3142
4.85871
4.73323
3.61419
4.18023
4.02315
0.10504
0.0928385
0.0963837
0.0817867
0.0827042
0.0843219
0.0865973
0.0892402
0.0826012
0.0829238
0.0837889
0.0838489
0.0852586
0.0851757
0.0966906
0.0972926
0.0948326
0.0956538
0.0928282
0.0938451
0.0907278
0.0920254
0.0870402
0.086689
0.0887903
0.0901222
0.0883496
0.102436
0.101959
0.10172
0.102488
0.102299
0.100005
0.100502
0.100096
0.10115
0.0982451
0.0987094
0.0964145
0.0969365
0.102126
0.10278
0.102459
0.104146
0.103582
0.103977
0.104318
0.103833
0.10464
0.105741
0.104368
0.104615
0.104148
0.112444
0.107893
0.108361
0.126985
0.117304
0.133908
0.156709
0.151116
0.177569
0.208796
0.422247
0.204621
0.275236
0.615295
1.98665
6.16416
6.90162
6.07557
7.31953
3.96789
6.81061
8.48051
9.42381
10.4201
10.128
10.2246
0.116038
0.14591
0.200872
2.92349
4.90788
1.11631
2.1769
0.444559
5.4693
6.40793
5.35432
4.77196
5.88379
5.50207
6.33778
6.4772
6.05855
5.81054
4.21265
4.36549
4.39344
4.28828
3.94381
4.0138
3.92846
3.81741
3.96297
3.98696
3.62792
3.60145
3.11156
3.19174
2.53067
2.64745
2.09505
2.14648
1.90803
1.82303
3.2927
1.83758
2.80837
4.94077
0.0959577
0.1017
0.0893536
0.0931173
0.083899
0.0852564
0.0871974
0.0845401
0.0849125
0.0854565
0.0855394
0.0866557
0.0866509
0.0947541
0.0953832
0.0931136
0.0938997
0.0913909
0.0922771
0.0897598
0.0908067
0.0882058
0.0892991
0.0879213
0.100931
0.100875
0.100874
0.100672
0.0982255
0.0990551
0.0987761
0.100148
0.0965682
0.0972838
0.0949502
0.0956691
0.102735
0.102125
0.104915
0.10395
0.109267
0.107572
0.110326
0.109468
0.106668
0.107683
0.110582
0.108397
0.106327
0.112145
0.107606
0.107726
0.121198
0.120613
0.139345
0.137176
0.17497
0.171504
0.232821
0.197814
0.317623
0.727738
0.261479
0.399888
1.72774
4.22504
6.4569
9.50469
9.57935
9.57625
9.78263
10.7235
10.6652
10.9662
0.709874
0.105989
0.110021
0.138203
0.181472
0.332195
3.99362
1.61564
2.4264
5.6103
4.40944
4.37389
4.83349
5.62524
6.04336
4.82452
5.3025
6.14283
6.08727
5.61301
5.18759
3.78877
3.97597
3.62139
3.63959
3.52902
3.54844
3.41325
2.95366
3.22989
3.19762
2.44871
2.63798
1.98456
2.15579
1.63662
1.75711
1.49821
1.47358
0.0938983
0.0973603
0.0864674
0.0881787
0.0909803
0.0862995
0.0877681
0.0870142
0.0874334
0.0878752
0.0879425
0.093334
0.0942507
0.0916771
0.0929245
0.0903377
0.0914924
0.0890361
0.0902304
0.0890403
0.101334
0.0999628
0.100115
0.100505
0.0973036
0.0981383
0.0998361
0.0982541
0.0957119
0.0966617
0.0943775
0.0951852
0.105276
0.104021
0.104051
0.107982
0.106116
0.114917
0.114249
0.113486
0.115828
0.122446
0.119688
0.120156
0.117323
0.116245
0.112355
0.110101
0.120132
0.116748
0.123322
0.147004
0.136985
0.216387
0.216995
0.170677
0.202813
0.311479
0.314584
1.00548
2.03435
0.8955
3.8171
5.78924
7.69214
10.4082
11.7776
11.5466
11.5015
1.49559
2.00923
0.099976
0.53939
1.02723
0.107887
0.112248
0.119901
0.153705
0.195664
0.316277
3.90119
3.15451
5.57897
5.13478
3.91076
4.2755
5.87296
5.97453
4.28928
4.80366
5.75766
5.58937
4.93929
3.37365
3.55621
2.95519
3.10185
3.11386
2.96439
2.52391
2.65799
2.09079
2.27474
1.75614
1.89736
1.43176
1.60795
0.0965736
0.0890849
0.0922244
0.094363
0.0946852
0.0884546
0.0900437
0.0886778
0.0895388
0.0893461
0.089605
0.0927244
0.0938908
0.0916056
0.0925775
0.0904045
0.0914576
0.0903345
0.0943907
0.100275
0.100002
0.101445
0.0992536
0.0981086
0.0970254
0.101699
0.0971246
0.0962067
0.0961251
0.105107
0.103395
0.106931
0.109561
0.109704
0.114814
0.113519
0.123173
0.12533
0.128369
0.127297
0.140618