/*--------------------------------*- C++ -*----------------------------------*\
  =========                 |
  \\      /  F ield         | OpenFOAM: The Open Source CFD Toolbox
   \\    /   O peration     | Website:  https://openfoam.org
    \\  /    A nd           | Version:  8
     \\/     M anipulation  |
\*---------------------------------------------------------------------------*/
FoamFile
{
    version     2.0;
    format      ascii;
    class       volScalarField;
    location    "18000";
    object      nut;
}
// * * * * * * * * * * * * * * * * * * * * * * * * * * * * * * * * * * * * * //

dimensions      [0 2 -1 0 0 0 0];

internalField   nonuniform List<scalar> 
4109
(
0.000666614
0.000661475
0.000658826
0.000666298
0.000669026
0.000677405
0.000672446
0.000677786
0.000675051
0.000657136
0.000666938
0.000678544
0.000668886
0.000671418
0.000676645
0.000677635
0.000665958
0.000673715
0.000679224
0.000675739
0.000660145
0.000678636
0.000673986
0.000678073
0.000673687
0.000668228
0.000656518
0.000672593
0.000677793
0.000681378
0.000677352
0.000677057
0.000665116
0.00067127
0.0006774
0.000682465
0.000673909
0.000667057
0.000667034
0.000670465
0.000667501
0.000662943
0.000674013
0.000681482
0.000678131
0.00148607
0.000802399
0.000677802
0.000677455
0.000661436
0.000673115
0.000677466
0.000676971
0.000672723
0.000675682
0.000661477
0.000661582
0.00067805
0.000676405
0.000669408
0.000675359
0.00196425
0.000684655
0.000680091
0.000679297
0.000695062
0.0012347
0.000678704
0.000673478
0.0006598
0.000671613
0.000678935
0.000689437
0.000677355
0.000679782
0.000673499
0.00067069
0.000667089
0.000648706
0.000674918
0.000679423
0.000679847
0.000675747
0.000668699
0.000728754
0.000739177
0.00152768
0.00193016
0.00194805
0.000684498
0.000685495
0.000680569
0.000680258
0.000680461
0.000655776
0.000945865
0.000676847
0.000660901
0.00069215
0.000686003
0.000682332
0.000686538
0.000692451
0.000684845
0.000673052
0.000676264
0.000674472
0.000665162
0.000657031
0.000678699
0.00065328
0.000680782
0.000680666
0.000677043
0.000670731
0.00209735
0.000825502
0.000989843
0.00126713
0.00197045
0.00201039
0.000670068
0.000687796
0.000689215
0.000682885
0.000682035
0.000681575
0.000677099
0.000939157
0.000634917
0.000665076
0.000692982
0.000689521
0.000694141
0.000692902
0.000681225
0.000689443
0.000676539
0.00067373
0.00067296
0.000659867
0.000677661
0.000681663
0.000681499
0.00068212
0.000678208
0.000671095
0.00175689
0.00102458
0.00194685
0.00131329
0.00201119
0.000803392
0.000690524
0.000688853
0.000683248
0.000682935
0.00068298
0.000681125
0.000664762
0.000819256
0.000642401
0.000694228
0.000690487
0.000696296
0.000694303
0.000695497
0.000696317
0.000680837
0.00067923
0.000676961
0.000670982
0.000655577
0.000680022
0.000674674
0.000683537
0.000683207
0.000678965
0.000673514
0.00118908
0.00227612
0.00121566
0.00194057
0.00199557
0.000751479
0.000685815
0.000686142
0.000684843
0.000682641
0.000684504
0.00066844
0.000861095
0.000646983
0.000688896
0.000689207
0.000697155
0.000692024
0.000697555
0.000700321
0.000691743
0.000685022
0.000679221
0.000676855
0.000673324
0.000662572
0.000682557
0.000676042
0.000684286
0.000684251
0.000681519
0.000673594
0.0011645
0.00214423
0.00198167
0.00117314
0.00202821
0.000747325
0.000685985
0.00068805
0.000685589
0.000671734
0.000857713
0.000638922
0.000689096
0.00069111
0.000692439
0.000692302
0.000695298
0.000700714
0.000698417
0.000702046
0.00068664
0.000682464
0.000679877
0.000674945
0.000659734
0.000685245
0.000672572
0.000685582
0.000685895
0.000682369
0.000683524
0.000676451
0.0010974
0.00216637
0.00120683
0.001968
0.00201432
0.000729763
0.000688587
0.000688756
0.000679208
0.00085766
0.00065737
0.000692168
0.000691621
0.000694056
0.000695804
0.000695598
0.000695854
0.000701318
0.00070361
0.000696693
0.000693041
0.000682291
0.000678419
0.00066624
0.0006835
0.000688396
0.000674378
0.000687143
0.00068507
0.00067634
0.000685538
0.00218325
0.00104693
0.00198901
0.00118778
0.00203999
0.000724262
0.000782843
0.000674549
0.000681421
0.000851269
0.00065934
0.000692712
0.00068986
0.000694591
0.0006986
0.000699195
0.00069712
0.000698764
0.000704659
0.000703081
0.000707616
0.000698337
0.000692275
0.000662495
0.000680372
0.000675034
0.000684962
0.000685326
0.000692613
0.000673997
0.000690215
0.000679519
0.000687189
0.00101593
0.00217115
0.00196082
0.00114727
0.00201507
0.000713279
0.000754227
0.000791965
0.000796536
0.000776138
0.000781047
0.000789428
0.000934131
0.000660479
0.000632033
0.000675281
0.000662217
0.000688263
0.000694412
0.000701226
0.000696716
0.000699048
0.000710218
0.000699522
0.000705478
0.000710252
0.000707384
0.000699009
0.000706458
0.000701032
0.000673297
0.000677395
0.000686291
0.000688452
0.000679286
0.0006947
0.000677228
0.000691019
0.000689165
0.000986192
0.00223339
0.00196217
0.000704558
0.000781649
0.000845627
0.000776562
0.000788894
0.000787184
0.000805403
0.000707786
0.000723056
0.000731182
0.000762507
0.000766352
0.000739405
0.000774973
0.000783626
0.00147097
0.000616251
0.000602372
0.000642282
0.000694461
0.000712885
0.000697951
0.000699962
0.000702224
0.000700739
0.000709239
0.000702444
0.000709218
0.000715881
0.00071441
0.000708488
0.000719718
0.000730565
0.000729091
0.000666377
0.000682994
0.000689835
0.000688671
0.000682666
0.000690363
0.000696158
0.000674248
0.000694434
0.000954636
0.0023698
0.000812917
0.000817778
0.000783554
0.000782797
0.000801207
0.000722358
0.000710015
0.000739573
0.00072885
0.00073474
0.000743961
0.000750938
0.00078008
0.000773021
0.000771031
0.00251371
0.00108278
0.000550051
0.000617107
0.000685146
0.000713753
0.000713381
0.000700484
0.000704151
0.00070036
0.000702778
0.00070872
0.000703469
0.000718359
0.000718383
0.000723985
0.000723503
0.000728303
0.000726314
0.00067846
0.000685221
0.000693821
0.000693995
0.000691274
0.000682441
0.000692461
0.000696406
0.00069983
0.000700012
0.000676459
0.000981792
0.000792404
0.000845205
0.000813598
0.000783767
0.000789003
0.000800714
0.000729181
0.000719264
0.000725845
0.00073684
0.000740067
0.000740451
0.000729982
0.000732529
0.000734725
0.000755152
0.000775065
0.000770398
0.000767088
0.00240621
0.00188737
0.000629135
0.000630125
0.000682802
0.000713236
0.00071153
0.000699838
0.000703768
0.000705576
0.000704536
0.000706444
0.000716621
0.000717352
0.00072241
0.000722517
0.000722847
0.000726498
0.000672547
0.000695167
0.000691413
0.000696603
0.000697503
0.000685975
0.000685734
0.000693737
0.000697294
0.000689701
0.00150546
0.00177867
0.000703746
0.000651922
0.000816201
0.0008158
0.000834058
0.000843411
0.000818474
0.000779392
0.000787528
0.000804596
0.000732341
0.000729804
0.000734656
0.00074018
0.000749291
0.000738791
0.000754095
0.000735516
0.0007412
0.000764273
0.000759209
0.000770821
0.000774489
0.0027868
0.00217916
0.00237003
0.000591535
0.000604172
0.000676027
0.000707724
0.000710786
0.000703379
0.000708576
0.000705659
0.000706809
0.000712341
0.000715506
0.000717361
0.000720665
0.000723511
0.00072844
0.000729592
0.000686519
0.000689663
0.000704263
0.000697061
0.000696095
0.000696619
0.000699743
0.000705148
0.000689766
0.000692921
0.000650515
0.000609091
0.000833277
0.000811154
0.000822821
0.000772177
0.000753121
0.000853262
0.000810039
0.000783689
0.000786126
0.000799478
0.000735317
0.000733734
0.000732547
0.000762816
0.00074474
0.000749484
0.000739535
0.000741817
0.000760119
0.000755395
0.000767055
0.000773012
0.000721519
0.00284937
0.00248757
0.00250257
0.000636238
0.000600366
0.000674825
0.000708724
0.000711171
0.000707928
0.000700745
0.00070974
0.000713253
0.000715882
0.000718168
0.000720999
0.000724377
0.000726665
0.00073068
0.00073265
0.000677461
0.000699524
0.00070135
0.00070218
0.000701214
0.000703283
0.000702603
0.000701552
0.000690972
0.000698243
0.000698541
0.000682304
0.000833755
0.000762114
0.000775929
0.000825512
0.000768338
0.000858778
0.000806156
0.000785537
0.000791953
0.000800142
0.000808147
0.000738785
0.000736169
0.000736587
0.000732746
0.000742884
0.000752132
0.000748784
0.000759373
0.000764204
0.00077204
0.000772974
0.000699676
0.00290513
0.00257999
0.00264775
0.000610627
0.000589486
0.000668018
0.000714166
0.000709995
0.000712522
0.00070761
0.000714458
0.000718745
0.000723482
0.000719201
0.000724656
0.00072971
0.000729241
0.000734195
0.000737177
0.000690587
0.0006943
0.000709379
0.00070781
0.000704253
0.000705805
0.000709927
0.000693733
0.000695739
0.000699238
0.000655091
0.00082534
0.000807001
0.000754352
0.000745641
0.000768304
0.000808853
0.000760515
0.000818821
0.00084857
0.000783231
0.000794061
0.00079613
0.000809212
0.000741998
0.000737884
0.0007391
0.000738967
0.000738733
0.00074731
0.000747499
0.000745284
0.000756144
0.000765072
0.000775426
0.00077977
0.000796909
0.00293687
0.00277179
0.0026716
0.000640324
0.000581626
0.000682365
0.00071571
0.000712705
0.000705245
0.000715773
0.000719126
0.000722539
0.000720526
0.000726676
0.000731713
0.000734373
0.000735657
0.000738367
0.000685476
0.000706242
0.000708059
0.000694951
0.000708174
0.000706523
0.000708097
0.000704475
0.000699423
0.000700362
0.000650126
0.000845329
0.000821365
0.000823159
0.000792267
0.000736472
0.000737744
0.000751785
0.000773107
0.000801711
0.000773511
0.000735647
0.000829516
0.00083731
0.000849638
0.000782745
0.000796472
0.000798009
0.000798372
0.000743635
0.000740384
0.000737116
0.000738387
0.000747728
0.000753438
0.000746811
0.000783374
0.000761238
0.000761566
0.000773242
0.000720954
0.00298086
0.00287774
0.00282517
0.000682836
0.000615408
0.000594928
0.00072114
0.000712269
0.00072262
0.000718705
0.000725864
0.000726004
0.000723094
0.000732463
0.000734355
0.000735742
0.000700274
0.000704206
0.00071307
0.000697667
0.000700476
0.000712301
0.000707509
0.000709267
0.000715088
0.000700204
0.00064534
0.000694303
0.000705103
0.000824769
0.000810524
0.000811036
0.00078288
0.000733993
0.00075163
0.000771076
0.000765716
0.000792585
0.000723135
0.00072049
0.000719677
0.000711725
0.000703351
0.000833502
0.000814181
0.000830033
0.000815876
0.000786427
0.000785195
0.000787096
0.000784132
0.000745601
0.000741333
0.000743363
0.000755038
0.00075122
0.000749793
0.00074309
0.000772467
0.000772577
0.00076588
0.000769388
0.000861929
0.00308061
0.00301788
0.00266116
0.000601674
0.000591637
0.000716405
0.000668608
0.000733368
0.000721327
0.000731
0.00073406
0.0007376
0.000699793
0.000716519
0.000699384
0.000702584
0.000708991
0.000713351
0.000710726
0.000712196
0.000647445
0.000700362
0.000704605
0.000705744
0.000704582
0.000810358
0.000803001
0.000801587
0.000773699
0.000731446
0.000758601
0.000788226
0.000758369
0.000739198
0.000722786
0.000722326
0.000714225
0.000711871
0.000701136
0.000712633
0.000819152
0.000851431
0.000813152
0.000820597
0.000772634
0.000775945
0.000779164
0.000764174
0.000744147
0.000743613
0.00075278
0.000747537
0.000753148
0.000748821
0.000747913
0.000773077
0.000774199
0.000764009
0.000600683
0.00301798
0.00303536
0.00271892
0.000583647
0.000579251
0.000739745
0.00103263
0.000729068
0.000734098
0.000737347
0.000726354
0.000701943
0.000705363
0.000719139
0.000713343
0.000717106
0.000710644
0.000668309
0.000709528
0.000715242
0.000722546
0.000798206
0.000800707
0.000795473
0.000791689
0.000765053
0.00076085
0.000779182
0.000751578
0.000743675
0.000753169
0.000736905
0.000726932
0.000734466
0.000729807
0.00072856
0.000729323
0.000780501
0.00080262
0.000785539
0.000810352
0.000764549
0.00076335
0.000772525
0.000767059
0.000786337
0.000744701
0.000759009
0.000754338
0.000753462
0.000751402
0.000747542
0.000761087
0.000763733
0.000762832
0.000652011
0.00316606
0.00311474
0.00308798
0.000521637
0.000730967
0.000624407
0.000737286
0.000739594
0.000704123
0.000706802
0.000713763
0.000716704
0.000718305
0.000715131
0.00068148
0.000709605
0.000731107
0.000706683
0.000796965
0.000794569
0.000788689
0.000778046
0.000756886
0.000774881
0.000746095
0.000767532
0.000764999
0.00075651
0.000736836
0.00074097
0.000751557
0.000743503
0.000747355
0.000811957
0.000786015
0.000803335
0.000757013
0.000755443
0.000762665
0.000778092
0.000778295
0.000754647
0.000751564
0.000747881
0.000756304
0.000753959
0.000752845
0.000541481
0.00315389
0.00451622
0.000983048
0.000747217
0.000624635
0.000742947
0.000710469
0.000723583
0.000717952
0.00072402
0.000714952
0.000687664
0.000709299
0.000711613
0.000785508
0.000782356
0.000777861
0.000770986
0.000751427
0.000740671
0.000736378
0.000731843
0.000728246
0.000711949
0.000714869
0.000724374
0.000717777
0.00072109
0.000778716
0.000794243
0.000788784
0.00075298
0.000759068
0.000774433
0.000752274
0.000774515
0.000752665
0.000748298
0.000751739
0.000750803
0.000752074
0.000756273
0.00543063
0.00515285
0.0014167
0.000765368
0.000573546
0.000718993
0.000721464
0.000716402
0.000720208
0.00069284
0.000715807
0.000728339
0.00078169
0.000784
0.000769992
0.000762461
0.000745371
0.000741587
0.000736439
0.000733801
0.000716941
0.000721389
0.000729071
0.000722717
0.0007273
0.000768415
0.000776976
0.000780054
0.000761135
0.000763823
0.000753083
0.000769158
0.000747995
0.000747101
0.000746549
0.000749368
0.00112687
0.000979027
0.00628486
0.00682716
0.00239528
0.00122809
0.000722932
0.00072001
0.000727588
0.000725522
0.000632139
0.000724663
0.0007265
0.000766124
0.000767332
0.000764501
0.000760206
0.000752361
0.000751606
0.000743994
0.000733394
0.000730727
0.000744563
0.000738681
0.000737047
0.000768885
0.000764093
0.000769744
0.000759114
0.000750436
0.00075362
0.000760968
0.000871417
0.00096672
0.00155507
0.00833073
0.0082401
0.00135781
0.00103475
0.00190879
0.000724319
0.00072246
0.000726678
0.000734815
0.000564379
0.000728244
0.000724396
0.000769563
0.000767398
0.000759356
0.000754433
0.000749872
0.000746371
0.000731887
0.000733979
0.000742773
0.000739921
0.00073696
0.000766272
0.000765846
0.000757015
0.000754798
0.000754961
0.000758226
0.000575862
0.000754584
0.000793215
0.00245507
0.00119627
0.000836355
0.00188699
0.00179727
0.000728772
0.000725083
0.000749405
0.000536186
0.000730771
0.000726195
0.000755611
0.000757067
0.000754632
0.000749544
0.000747144
0.000729115
0.000736721
0.000742528
0.000741541
0.000736524
0.000765151
0.000762563
0.000749429
0.000763755
0.000750748
0.000752234
0.000473335
0.000481704
0.000625457
0.000612698
0.00056198
0.00184237
0.000996395
0.000638736
0.00161918
0.00166806
0.000729447
0.000736956
0.000767713
0.000732446
0.000731866
0.000731427
0.000756102
0.000749956
0.000748685
0.000743728
0.000737026
0.000732882
0.000743406
0.000739525
0.000737735
0.000760134
0.000748731
0.000759779
0.000747328
0.000747853
0.000374424
0.000387192
0.000487779
0.000432046
0.00163633
0.000406787
0.00191217
0.0015334
0.000776423
0.000447342
0.00133285
0.00152393
0.000725604
0.000745386
0.000731101
0.000733565
0.000735276
0.000750784
0.000749784
0.00074919
0.000745045
0.000737946
0.0007376
0.000743942
0.000740861
0.000739958
0.000755116
0.000745844
0.000742828
0.00138673
0.000287851
0.000294468
0.000346586
0.000258399
0.0014138
0.000280422
0.00197262
0.00159878
0.00122106
0.000550736
0.000267533
0.00103024
0.00136443
0.000739045
0.000729009
0.000734989
0.00073115
0.000740006
0.000742336
0.000745443
0.000743542
0.000736337
0.000737015
0.000743288
0.000740249
0.000740391
0.00141055
0.00115369
0.000214163
0.000204413
0.000207643
0.000103104
0.00116623
0.000183709
0.00202843
0.00164686
0.0012853
0.000922152
0.000332108
0.000108731
0.000728007
0.00118285
0.00162015
0.00114864
0.000939168
0.000150821
0.000119978
8.13909e-05
7.25055e-06
0.00090839
0.000109495
0.0022396
0.00169703
0.00132346
0.00098022
0.000643959
0.000138629
8.72388e-06
0.000443204
0.000977898
0.00189981
0.00129664
0.00092826
0.000734197
9.26515e-05
4.46852e-05
4.63519e-06
0.00065316
5.75088e-05
0.00125562
0.0019471
0.00136943
0.00100911
0.000691604
0.000392991
1.45479e-05
0.000197863
0.00257255
0.00147367
0.00102262
0.000727882
0.000534194
3.76545e-05
1.52169e-06
0.000408081
3.1203e-05
0.00113315
0.000963901
0.00160766
0.00105072
0.000712221
0.000426939
0.000178143
3.38001e-05
0.00425488
0.00197187
0.00111919
0.000798752
0.000539294
0.000341549
1.08615e-06
0.000186903
0.00141733
0.000947356
0.000716816
0.00124652
0.000746603
0.000440592
0.000196642
2.72823e-05
0.0043827
0.00366676
0.00146696
0.000820699
0.000599984
0.000357287
0.000162357
2.62918e-05
0.00183978
0.00121074
0.000772486
0.000507451
0.000886766
0.00046527
0.000204828
3.21053e-05
0.00546718
0.0036631
0.0030073
0.00104952
0.000579476
0.000414106
0.000181675
2.42777e-05
0.00217779
0.00146715
0.00100062
0.000604808
0.000331552
0.000550659
0.000218714
3.50745e-05
0.00451754
0.00470144
0.0029285
0.00234644
0.000710062
0.000394274
0.000229538
3.4699e-05
0.00236271
0.00172919
0.00112089
0.000785301
0.000441627
0.000188066
0.000260344
3.95359e-05
0.00400175
0.00376533
0.00389153
0.00221452
0.00173576
0.000415387
0.000242317
6.24881e-05
0.00238555
0.00187164
0.00131702
0.000808094
0.000560756
0.000285401
7.85096e-05
5.33393e-05
0.00381914
0.00336736
0.00301128
0.0030916
0.00156824
0.00119342
0.000209177
8.85784e-05
0.00222802
0.00189042
0.00142246
0.000947994
0.000533774
0.000326935
0.000130691
1.523e-05
0.00377025
0.00320459
0.00270109
0.00225712
0.00233404
0.00101276
0.000647912
8.02274e-05
0.00186879
0.00177233
0.00143752
0.00102198
0.000626272
0.000301662
0.000124391
1.38365e-05
0.00394409
0.00316265
0.00256995
0.00204889
0.00154843
0.00164004
0.000552315
0.000141261
0.00142725
0.0014903
0.00135217
0.0010335
0.000674068
0.000354755
0.000117221
9.39178e-06
0.0043721
0.00329181
0.00253498
0.00195192
0.00143708
0.00092836
0.000960252
0.000214821
0.00109244
0.00121606
0.00113909
0.000975066
0.000682269
0.000381291
0.000139651
9.39166e-06
0.00524886
0.00364431
0.00262826
0.00192436
0.00137224
0.000889808
0.000449209
0.00025855
0.00125119
0.000913539
0.00100252
0.000821997
0.000645278
0.000386396
0.00015051
1.31747e-05
0.00408186
0.00451447
0.0029175
0.00198664
0.00135187
0.000852506
0.000435692
0.000143446
0.00220888
0.000961773
0.000746229
0.000784758
0.000543532
0.000366303
0.00015287
1.51713e-05
0.00401411
0.00330655
0.00368369
0.00220814
0.00138796
0.000838483
0.000418883
0.000125054
0.00202488
0.0019117
0.000713026
0.000585215
0.000558063
0.000307665
0.000144939
1.56565e-05
0.00253866
0.00337277
0.00253458
0.00281573
0.00155741
0.000851797
0.000410409
0.000120195
0.00194537
0.00168963
0.0015726
0.000503561
0.000427468
0.000324365
0.00012024
1.42459e-05
0.00192692
0.00189786
0.0026064
0.00181616
0.00196159
0.000992289
0.000409209
0.000115776
0.00187627
0.00161795
0.00135864
0.00121487
0.000328606
0.000275851
0.000123384
1.00567e-05
0.0016946
0.00150126
0.00133097
0.00179476
0.00120812
0.00115621
0.000520658
0.000111395
0.00181159
0.00156268
0.00129532
0.00103896
0.000861612
0.000186275
0.000125364
9.3844e-06
0.00141584
0.00136223
0.00114674
0.000864946
0.00105807
0.000697011
0.000393841
0.000163266
0.00191328
0.00186859
0.00150153
0.00125163
0.000984472
0.00073605
0.000533205
7.70948e-05
1.26005e-05
0.00139075
0.0011505
0.00106993
0.000853038
0.000508465
0.000478558
0.000304117
3.5286e-05
0.00137002
0.00179337
0.00159704
0.00119075
0.000951529
0.000692421
0.000457024
0.00024995
1.39573e-05
0.00161509
0.00115646
0.000928509
0.000821087
0.000606969
0.000267033
0.000146798
8.9495e-05
0.000566022
0.00120787
0.00119358
0.00165775
0.00131045
0.000896206
0.000669297
0.000426028
0.000213199
4.94575e-05
0.00140782
0.000941396
0.000731152
0.000605516
0.000410678
0.000137312
4.02176e-05
0.000408358
0.000501505
0.00116319
0.00101653
0.00098554
0.0015088
0.00100961
0.000624276
0.000411388
0.000196407
3.72605e-05
0.000630499
0.000940879
0.0011692
0.000736492
0.000544544
0.000409706
0.000252383
9.46025e-05
0.000280042
0.000399705
0.000994838
0.000819452
0.000762991
0.0013449
0.000710685
0.000380251
0.000188084
3.21269e-05
0.000523454
0.000815875
0.000914617
0.000536494
0.000361148
0.000227113
9.66596e-05
0.000183532
0.000308877
0.000814231
0.000623508
0.000537587
0.00116071
0.000430391
0.000171696
2.93577e-05
0.000418947
0.000677298
0.000659884
0.000343281
0.00018398
6.45693e-05
0.000109872
0.000231159
0.000627616
0.000434802
0.000321837
0.000953854
0.000189815
2.53534e-05
0.000317672
0.000528773
0.000413464
0.000163503
3.60951e-05
5.95555e-05
0.000163991
0.000441707
0.000258553
0.000132429
3.08788e-05
0.000220478
0.000376424
0.000190286
2.47269e-05
3.22535e-05
0.000101611
0.000263596
0.000103702
1.30158e-05
0.000130236
0.000226768
2.73942e-05
4.19056e-05
0.000105294
7.69077e-06
4.95963e-05
9.05248e-05
1.35772e-06
7.52689e-06
1.96943e-06
5.85695e-06
0.000739592
0.000739071
0.000740656
0.000740879
0.000741808
0.000740987
0.000741165
0.000742197
0.00074003
0.000738889
0.00074017
0.00074062
0.000741436
0.000741381
0.000742005
0.000744873
0.000758736
0.000763703
0.000768574
0.000777931
0.000782278
0.000743996
0.000747463
0.00074198
0.000743733
0.00074249
0.00074065
0.000742166
0.000743603
0.000741022
0.000794597
0.000798711
0.000740016
0.00074008
0.000740982
0.000741197
0.000742322
0.000742139
0.000745567
0.000748119
0.000751268
0.000753316
0.000756757
0.000764338
0.000770175
0.000777028
0.000789338
0.000794545
0.000819106
0.000820995
0.000750107
0.000753185
0.000755786
0.000759522
0.00076408
0.000771444
0.000780742
0.000743755
0.000747904
0.000741693
0.000742638
0.000742628
0.000740875
0.000743438
0.000744618
0.00074238
0.000778273
0.000786201
0.000840033
0.000848937
0.000808813
0.000808909
0.000833216
0.000739879
0.000740628
0.00074124
0.000742456
0.000743901
0.000745475
0.000749489
0.000750998
0.000757981
0.000759882
0.000764633
0.000770921
0.000784681
0.000796387
0.0008047
0.000812949
0.000830845
0.000834001
0.000859669
0.000868856
0.000905588
0.000898847
0.00092203
0.000747041
0.000751964
0.000753488
0.000758207
0.000763791
0.000743761
0.000746852
0.000741634
0.000741948
0.000743587
0.000741542
0.000744497
0.000744467
0.000744744
0.000763753
0.000780039
0.000780871
0.000803458
0.000811556
0.000905136
0.000853008
0.000891747
0.000835585
0.000850242
0.000742851
0.000743125
0.000745345
0.000746148
0.000750038
0.000750608
0.000757418
0.000756001
0.00076632
0.000762383
0.000776172
0.000779593
0.000820434
0.000810622
0.000826518
0.000841514
0.000855818
0.000865725
0.000885338
0.000896155
0.000949415
0.00095094
0.000998535
0.00101768
0.000981562
0.00102396
0.00103045
0.00122708
0.000746524
0.000751759
0.000753081
0.000756987
0.00074594
0.000745378
0.000743833
0.000746528
0.000742158
0.000741969
0.000744434
0.00074375
0.000741998
0.000746275
0.000745149
0.000760952
0.00077198
0.000780375
0.00152635
0.00134985
0.00150051
0.000800575
0.000803224
0.000830698
0.000844671
0.000905917
0.000918444
0.00106494
0.000970841
0.000861225
0.000909301
0.000750703
0.000748251
0.000754573
0.000751263
0.000759712
0.000755011
0.000764645
0.000760841
0.000764818
0.000770359
0.000781449
0.000783887
0.000794366
0.000818475
0.000849597
0.000824713
0.000849682
0.000970059
0.000969162
0.000963317
0.00102997
0.00202941
0.00209259
0.00175467
0.00117876
0.00117944
0.00129751
0.00124763
0.0012497
0.00137521
0.0013879
0.00186844
0.00156391
0.00355209
0.00332309
0.00339953
0.00210644
0.00299641
0.0028057
0.00246304
0.00212326
0.000746573
0.000750833
0.000750455
0.000755451
0.000744147
0.000743567
0.000743951
0.00074566
0.000742594
0.000742567
0.00074217
0.000746426
0.00074544
0.00074428
0.000743668
0.000760348
0.000773826
0.000803133
0.000781666
0.000798203
0.003663
0.00367465
0.00284437
0.00272641
0.002145
0.00111676
0.00137026
0.00156413
0.00192622
0.000837863
0.000839406
0.000848462
0.000847236
0.000891456
0.000902515
0.000992039
0.000976331
0.0010558
0.00363288
0.00342483
0.00126152
0.00328199
0.00288459
0.00263627
0.00148374
0.00179028
0.00189191
0.00263063
0.000779859
0.00076715
0.000783475
0.000769838
0.00078617
0.000775322
0.000789994
0.000790415
0.000798519
0.000796216
0.000810438
0.000811003
0.000850333
0.000876855
0.000930138
0.000902677
0.00114034
0.00133211
0.00110037
0.00173796
0.00142712
0.00132765
0.00162986
0.00146106
0.0014378
0.00252514
0.00304921
0.00350298
0.00304426
0.00268153
0.00228369
0.00180534
0.00167012
0.00184429
0.00200616
0.00259994
0.00190741
0.00204213
0.00348483
0.00354999
0.00361236
0.00369927
0.00356991
0.00340341
0.00329243
0.00330261
0.00138581
0.00136695
0.00284741
0.00297158
0.00153377
0.00160433
0.00191162
0.00254633
0.00207315
0.00240964
0.000746571
0.000749742
0.000749111
0.000758557
0.00074321
0.000742992
0.000742975
0.000743889
0.000745189
0.000746443
0.000745198
0.000744522
0.000743516
0.00074339
0.000743107
0.000758601
0.000774341
0.000776409
0.000795176
0.000799438
0.000826994
0.000793984
0.0034971
0.00374779
0.00338257
0.00371012
0.00365074
0.00274187
0.0033233
0.00262468
0.00215073
0.000838996
0.00192192
0.00117335
0.0017577
0.00134627
0.000879575
0.000876021
0.000901249
0.000888608
0.000922086
0.000910611
0.00103475
0.00102858
0.00117216
0.00369685
0.00339268
0.00375724
0.00113347
0.00120528
0.000952188
0.00323798
0.00280028
0.00265881
0.00180197
0.00114182
0.00157836
0.000621306
0.00082676
0.00386792
0.0012913
0.000684822
0.000842525
0.000776506
0.000875717
0.000862224
0.000903736
0.000942041
0.000879107
0.000870447
0.000944349
0.000951428
0.00114478
0.00121709
0.00170837
0.00132637
0.00174773
0.00134629
0.00131197
0.00176828
0.00148365
0.00160884
0.00186898
0.00223728
0.0018442
0.00156207
0.002031
0.00181011
0.00215281
0.00203319
0.00274122
0.00314666
0.00354069
0.00335248
0.00294836
0.00246924
0.00247838
0.00227109
0.0028054
0.00231852
0.0025195
0.00360708
0.00349852
0.00368503
0.00355564
0.00362692
0.00333162
0.00339052
0.00287817
0.00312539
0.00303471
0.00146099
0.00162585
0.00247894
0.00263923
0.00227151
0.00215566
0.00196178
0.000757616
0.000746427
0.000748862
0.000748622
0.000743112
0.00074374
0.000744834
0.000759392
0.000745966
0.000744883
0.000744502
0.000743737
0.000743854
0.000743356
0.000743826
0.000743902
0.000746841
0.00074511
0.000744492
0.000748485
0.000748035
0.000750366
0.000772491
0.000773786
0.000776488
0.000785573
0.00084299
0.000814226
0.00081633
0.000796444
0.00381281
0.00380573
0.00353961
0.00244671
0.00335177
0.00284022
0.000873637
0.000908909
0.000920556
0.00241427
0.00141121
0.00226969
0.00155514
0.000935089
0.000926061
0.00100511
0.000988187
0.00116418
0.00116778
0.00133798
0.00376699
0.00378138
0.00357317
0.0038786
0.00392576
0.00339495
0.000839734
0.000904342
0.000674224
0.00293981
0.00271196
0.00207915
0.00150869
0.000864575
0.00910863
0.00821076
0.00217181
0.000903297
0.00742694
0.00528212
0.00139131
0.000908096
0.00114847
0.00091024
0.00107633
0.000993274
0.00112849
0.00127105
0.00124635
0.00177102
0.00181075
0.0015141
0.00223669
0.0017316
0.00194822
0.00250712
0.00247221
0.00270187
0.00222162
0.00239231
0.00258345
0.00287074
0.00222871
0.00242745
0.00264756
0.00234697
0.00273319
0.00243572
0.00348759
0.00319289
0.00339246
0.00330542
0.00307375
0.0030537
0.00318693
0.00305969
0.00297712
0.00365245
0.00349399
0.00341742
0.00352619
0.00349055
0.00302811
0.00328104
0.00257317
0.00277346
0.00215376
0.00228755
0.000756057
0.000753084
0.00074977
0.000756923
0.000744126
0.000746018
0.000747585
0.00075508
0.000761168
0.000745234
0.000744223
0.000744297
0.000743614
0.000744014
0.000743626
0.000744637
0.00074482
0.000748052
0.000742029
0.000747166
0.000748482
0.000751013
0.000752564
0.000771368
0.000774367
0.000786608
0.000794682
0.00086358
0.000839984
0.000842097
0.000811911
0.00317606
0.00330838
0.00384339
0.000924206
0.000943615
0.000945852
0.00103134
0.000987969
0.00233536
0.00297707
0.00165223
0.00209774
0.00138588
0.00128607
0.00167118
0.00169679
0.00150393
0.00370232
0.00391668
0.00394116
0.00374341
0.0037467
0.00351724
0.0030329
0.0027647
0.000615793
0.000704648
0.00239455
0.00188371
0.00145951
0.000788074
0.00915457
0.0103078
0.00382688
0.0083053
0.010174
0.00984352
0.00550961
0.00340412
0.00942714
0.00895593
0.00456664
0.0025272
0.0035243
0.00204442
0.00294027
0.00185625
0.00253165
0.002524
0.00203416
0.0029918
0.00261607
0.00261894
0.0025206
0.00265119
0.00315545
0.00306926
0.00311587
0.00334481
0.00306553
0.00279504
0.00324004
0.00342029
0.00288897
0.00317165
0.00338479
0.00308277
0.00338523
0.00361041
0.00345795
0.00359879
0.00346805
0.00357035
0.00344433
0.00345051
0.00347544
0.00355045
0.00354194
0.00315434
0.00337485
0.00269568
0.00284732
0.00216568
0.00232794
0.000759239
0.00075684
0.000756166
0.000753957
0.000749405
0.000749904
0.000753676
0.00075902
0.000766002
0.000746979
0.000741819
0.000746823
0.000742317
0.000748187
0.000744804
0.000750852
0.000746209
0.000747585
0.000749213
0.000750673
0.000752761
0.00075404
0.000775915
0.000776865
0.000787841
0.000816715
0.00080245
0.000780652
0.000911325
0.000871957
0.000875955
0.000846008
0.00095013
0.00383003
0.00337811
0.000983127
0.0009295
0.00121231
0.00111146
0.00181081
0.00214609
0.00219168
0.0021104
0.00305112
0.00258093
0.00229629
0.00248874
0.00234421
0.00394835
0.00414318
0.00377827
0.00396763
0.00324247
0.00293777
0.0023793
0.00219332
0.00189141
0.00179613
0.000607798
0.00134791
0.00767521
0.0098782
0.00229512
0.00576189
0.00966996
0.0106804
0.00857522
0.00738798
0.01071
0.010259
0.00694949
0.00582201
0.00571913
0.0038006
0.00439576
0.00351573
0.00316364
0.00331519
0.00416147
0.00345204
0.00393346
0.00334435
0.00360616
0.00363611
0.00388185
0.00378894
0.00375855
0.00362681
0.0035675
0.00335301
0.00366431
0.00381461
0.00345272
0.00361689
0.0037266
0.00359429
0.0037066
0.00358705
0.00354854
0.0035516
0.00364204
0.00363185
0.00361923
0.0032629
0.00342248
0.00276564
0.00293816
0.00222337
0.00239943
0.000788263
0.000665603
0.000759282
0.000760242
0.000759201
0.00075762
0.000756803
0.000754807
0.000757004
0.000757611
0.000763025
0.000763735
0.000780385
0.000747335
0.000746669
0.000748152
0.000748491
0.000751937
0.000749102
0.000749958
0.000751785
0.000753126
0.000753997
0.000755738
0.000775546
0.000799739
0.000803253
0.000849744
0.000792854
0.000800671
0.000949235
0.000898641
0.000907191
0.000850758
0.00100893
0.00115661
0.00090272
0.0038983
0.00373894
0.00190499
0.0016796
0.00239455
0.00347255
0.00316627
0.00282712
0.0030847
0.00340517
0.00363718
0.00305736
0.00384862
0.00446921
0.00305731
0.00354716
0.00255437
0.00225545
0.0018189
0.00167004
0.000596068
0.000905861
0.00597476
0.00920821