/*--------------------------------*- C++ -*----------------------------------*\
  =========                 |
  \\      /  F ield         | OpenFOAM: The Open Source CFD Toolbox
   \\    /   O peration     | Website:  https://openfoam.org
    \\  /    A nd           | Version:  8
     \\/     M anipulation  |
\*---------------------------------------------------------------------------*/
FoamFile
{
    version     2.0;
    format      ascii;
    class       volScalarField;
    location    "20000";
    object      epsilon;
}
// * * * * * * * * * * * * * * * * * * * * * * * * * * * * * * * * * * * * * //

dimensions      [0 2 -3 0 0 0 0];

internalField   nonuniform List<scalar> 
4109
(
0.117468
0.131144
0.120867
0.129888
0.135541
0.131508
0.136725
0.120775
0.145299
0.145119
0.143158
0.147259
0.120016
0.1347
0.139663
0.150927
0.151603
0.150014
0.151986
0.14115
0.121785
0.130575
0.131762
0.158831
0.160145
0.165315
0.120043
0.133812
0.118554
0.160476
0.149185
0.143121
0.132609
0.131279
0.137936
0.163076
0.164099
0.176558
0.137233
0.119712
0.134453
0.137056
0.122419
0.166563
0.154522
0.552419
0.2507
0.148882
0.143816
0.132456
0.138995
0.170777
0.178451
0.192212
0.150443
0.137686
0.117439
0.135028
0.139377
0.147627
0.144078
0.676875
0.177315
0.163067
0.157181
0.214509
0.552383
0.151029
0.143465
0.143799
0.207831
0.184805
0.236317
0.227419
0.224585
0.15588
0.155561
0.143945
0.134862
0.1443
0.140624
0.14355
0.149293
0.152086
0.182506
0.249449
0.590968
0.800571
0.810558
0.188968
0.184677
0.169516
0.163121
0.157874
0.189036
0.422793
0.151273
0.144027
0.237085
0.220717
0.209839
0.242332
0.248356
0.245916
0.251896
0.165718
0.16128
0.155498
0.141136
0.154483
0.207991
0.147208
0.151786
0.154742
0.161337
0.819677
0.302954
0.401668
0.566607
0.895663
0.847162
0.25144
0.206332
0.194386
0.178849
0.172038
0.165672
0.157374
0.429646
0.162602
0.15482
0.241512
0.227104
0.260361
0.251883
0.27434
0.256568
0.172096
0.16983
0.169573
0.155071
0.16098
0.211076
0.152185
0.157548
0.16278
0.166805
0.798455
0.474532
0.916259
0.59913
0.925955
0.284649
0.214462
0.20367
0.186773
0.17915
0.172491
0.166186
0.159653
0.415376
0.14945
0.235695
0.221824
0.269644
0.248224
0.279166
0.283649
0.300085
0.182714
0.178201
0.176962
0.163952
0.169652
0.226727
0.159223
0.165603
0.16892
0.17677
0.556489
0.972419
0.579939
1.0094
0.984791
0.313374
0.197387
0.207055
0.188715
0.172229
0.180788
0.17054
0.473852
0.155963
0.219138
0.230588
0.263616
0.24429
0.278158
0.297222
0.296313
0.338056
0.190365
0.188171
0.189481
0.177751
0.171339
0.228549
0.165789
0.171663
0.177974
0.18381
0.602967
1.05394
1.07905
0.66628
1.09681
0.310902
0.198463
0.210152
0.184847
0.178416
0.496592
0.168718
0.221466
0.234392
0.257909
0.247681
0.273648
0.29623
0.311801
0.335234
0.375038
0.20244
0.196965
0.196621
0.18909
0.178958
0.241397
0.179825
0.172461
0.211964
0.185977
0.194915
0.591227
1.15157
0.698369
1.19336
1.19351
0.329094
0.200871
0.208844
0.190326
0.547297
0.171993
0.224059
0.234168
0.26209
0.250339
0.277486
0.289834
0.315064
0.338442
0.362229
0.422392
0.213121
0.205296
0.202637
0.222024
0.181138
0.245389
0.184168
0.225183
0.203814
0.196864
1.24183
0.615719
1.29089
0.766884
1.32893
0.338683
3.64985
0.202894
0.215118
0.57711
0.1789
0.223586
0.237632
0.26306
0.249422
0.279759
0.293522
0.308307
0.33749
0.364643
0.402126
0.412958
0.479059
0.21009
0.219835
0.203513
0.234338
0.236736
0.186849
0.255241
0.199698
0.216297
0.207085
0.63956
1.36636
1.41551
0.770293
1.4451
0.353761
4.40738
3.87582
4.60697
3.18424
3.9592
2.78974
0.751781
0.187756
0.231893
0.23845
0.254164
0.252566
0.267561
0.280591
0.294009
0.311392
0.42399
0.327688
0.361238
0.397176
0.478459
0.541667
0.510046
0.617858
0.231729
0.225024
0.247546
0.251647
0.227121
0.199408
0.271822
0.207346
0.219421
0.699401
1.52074
1.50344
0.357139
9.80429
7.17486
4.72242
3.39321
4.36372
5.47821
0.724371
0.718617
0.810411
3.02079
2.61985
2.79068
2.54537
2.91514
1.38711
0.219226
0.305985
0.287327
0.273939
0.464694
0.284907
0.295613
0.311873
0.330418
0.42252
0.349641
0.387942
0.533201
0.479672
0.58986
0.576224
0.721148
0.806613
0.248663
0.251309
0.265023
0.264859
0.241316
0.231316
0.209935
0.26938
0.223009
0.789837
1.81195
10.1273
7.33936
3.60962
4.35717
5.52844
0.787731
0.840137
0.920336
0.843768
0.898342
2.13266
2.32175
2.24651
2.52334
2.99091
2.06911
1.18197
0.318467
0.328539
0.292148
0.454859
0.47188
0.310683
0.308342
0.329141
0.351503
0.414618
0.373177
0.542322
0.509188
0.595643
0.647278
0.729696
0.766512
0.276542
0.265319
0.232793
0.293498
0.281783
0.254491
0.245423
0.319437
0.236783
0.224544
0.330683
0.868212
9.84249
11.2001
7.49129
3.58597
4.45296
5.70717
0.830641
1.00247
1.18956
0.939052
1.02763
1.82948
1.47207
0.933202
1.00112
1.9927
2.18588
2.5446
2.95255
2.48352
2.13111
0.605211
0.345411
0.325283
0.44396
0.473825
0.325193
0.328341
0.349737
0.374207
0.400022
0.553597
0.513289
0.605108
0.660802
0.698565
0.758244
0.302253
0.319378
0.295075
0.248683
0.249057
0.270971
0.286962
0.259836
0.334763
0.307203
1.72648
2.4953
0.241295
0.235145
10.2517
7.29755
7.04484
11.4057
7.76151
3.63366
4.54875
5.91913
0.912761
0.805852
1.07055
1.20277
1.13502
1.4044
1.66362
1.0369
1.12286
1.90799
2.14635
2.52699
3.06518
3.27138
3.08746
3.87888
0.64154
0.409799
0.348279
0.429296
0.462463
0.350677
0.346672
0.370388
0.400717
0.498965
0.540404
0.586574
0.63925
0.693383
0.739234
0.773232
0.33738
0.335561
0.262452
0.261986
0.276741
0.293221
0.312759
0.358075
0.327079
0.26437
0.361069
0.458558
10.664
7.53975
6.47381
4.31497
4.3917
11.5843
7.60072
3.7155
4.14697
4.95762
1.00671
0.876719
0.838714
1.61549
1.25986
1.35025
1.15896
1.24828
1.86929
2.11717
2.63669
3.13222
0.944952
3.87831
3.92227
4.47825
0.854042
0.455404
0.386789
0.429775
0.462374
0.371143
0.373322
0.398424
0.498412
0.539005
0.584337
0.635693
0.680297
0.713927
0.770654
0.78289
0.376176
0.37787
0.283053
0.282784
0.298944
0.315767
0.331772
0.385257
0.349436
0.332945
0.283585
0.302716
10.4477
3.29171
6.16611
5.39711
4.35535
11.7404
7.70914
3.51002
4.33029
5.22201
6.51452
1.11569
0.862337
0.976294
0.867314
1.29764
1.56127
1.41971
1.87386
2.27455
2.71537
2.99761
0.994628
4.63692
4.81296
5.59154
0.963837
0.532629
0.421882
0.460089
0.42606
0.396681
0.401697
0.49467
0.535264
0.627015
0.578132
0.667738
0.709719
0.711793
0.759965
0.823953
0.421507
0.407905
0.417834
0.304295
0.303464
0.33032
0.34941
0.372163
0.364652
0.306073
0.349526
10.9353
7.30173
2.47821
2.7169
4.9653
4.35675
3.59392
8.10778
11.6782
3.65402
4.28726
5.04612
6.20935
1.23862
0.892837
1.06792
0.919245
0.979825
1.46353
1.57339
1.37164
1.94505
2.32959
2.63831
3.13335
1.47437
5.55533
5.89896
6.5161
1.20704
0.610475
0.44469
0.463032
0.429008
0.429591
0.502863
0.534682
0.617392
0.580799
0.681159
0.711792
0.749129
0.798986
0.857108
0.474619
0.456775
0.45167
0.400132
0.330297
0.332456
0.351184
0.365319
0.381387
0.330779
0.412449
11.7556
8.623
6.4432
5.50839
1.92308
2.16862
2.59469
4.1624
3.56008
3.08902
1.56117
8.09184
11.4655
11.6747
3.6375
4.28798
5.73851
5.04662
1.19567
0.943883
1.04419
0.973716
1.51542
1.70893
1.33248
3.13816
2.00076
2.24162
2.7031
1.59841
6.75859
7.27375
8.13551
0.47343
1.44717
0.631124
0.466627
0.466593
0.553997
0.531776
0.63635
0.64375
0.598481
0.691274
0.752919
0.811263
0.537123
0.500035
0.485586
0.428653
0.414886
0.351331
0.347284
0.371955
0.394283
0.355388
0.44067
0.617021
0.702066
8.36457
6.67936
5.12869
4.42389
1.77569
2.19127
2.62916
3.42764
2.94203
1.4646
1.24731
1.07337
0.86072
0.799973
10.8309
7.80641
10.8555
8.13343
3.16462
3.67723
4.21667
5.60405
1.17295
0.996242
1.0563
1.72703
1.52246
1.33607
1.26962
2.69359
2.68788
1.97713
2.33248
1.95516
9.22563
8.37713
9.37407
0.665822
1.55706
0.501354
0.55761
0.639125
0.583226
0.686671
0.7328
0.786205
0.541475
0.520549
0.46288
0.440208
0.418149
0.380344
0.375292
0.39912
0.513517
0.384199
0.741298
0.619381
0.680215
6.409
5.41963
4.19619
3.58392
1.79217
2.24733
2.47653
2.82512
1.57428
1.23732
1.30377
0.760503
1.04561
0.825783
0.900504
8.01285
6.67113
6.2525
5.15083
3.00251
3.52707
4.60312
2.63039
1.13366
1.0573
1.64541
1.40684
1.532
1.36024
1.22197
2.36244
2.40651
2.00183
1.80454
11.306
10.529
11.3671
1.07711
1.74681
0.552601
0.325148
0.63561
0.700505
0.759611
0.561334
0.498989
0.479265
0.452833
0.426529
0.403016
0.396361
0.462765
0.40186
0.691125
0.616146
5.04642
5.20355
4.42532
3.43665
2.91191
1.92208
2.12035
2.36741
1.64355
1.45871
1.28052
0.768993
0.819099
1.128
0.891278
0.984568
5.79421
5.17641
5.13596
4.29851
2.32756
3.11933
3.40962
2.69069
4.32648
1.1215
1.72947
1.56774
1.47289
1.30098
1.19121
1.80687
1.99252
2.03128
1.85031
15.1858
13.6397
15.6516
3.07283
0.61782
0.901297
0.681405
0.74326
0.54147
0.513413
0.483969
0.459919
0.433653
0.429523
0.471777
0.437831
0.676729
0.587682
4.25038
4.32604
3.54113
2.79965
2.41798
1.82953
2.01411
1.58802
1.39072
1.23524
0.73914
0.801274
1.10345
0.887542
0.980629
4.27265
4.13339
3.34532
1.89333
2.0972
2.38375
2.6044
3.55148
1.50034
1.37258
1.25155
1.64509
1.58003
1.79791
2.64546
20.8841
27.4004
9.45202
0.677885
1.11701
0.739196
0.560257
0.525762
0.4952
0.462845
0.458289
0.506368
0.641492
0.605448
3.51507
3.45936
2.81686
2.32353
2.05179
1.73467
1.51063
1.32712
1.17599
0.701314
0.770843
1.04884
0.849662
0.941949
3.40615
3.40176
2.78919
1.95536
2.1278
2.30828
1.81823
2.82759
1.41158
1.30882
1.50971
1.54038
1.67697
4.71056
46.1665
45.5039
21.3367
0.75452
2.34296
0.566036
0.536535
0.494043
0.502083
0.618614
0.663219
0.617523
2.83005
2.81309
2.33797
1.98757
1.76636
1.53933
1.35298
1.20186
0.722681
0.795328
1.07356
0.873576
0.967578
2.78428
2.77103
2.32925
1.85494
1.98324
1.68678
2.347
1.35724
1.43021
1.45601
1.52722
1314.6
10.0992
77.9469
81.0527
51.3512
1482.17
0.57955
0.541244
0.556468
0.553665
0.84892
0.669739
0.63024
2.30199
2.32658
1.99986
1.72339
1.50583
1.33252
1.18733
0.734069
0.800822
1.07025
0.880699
0.966507
2.21336
2.23581
1.98269
1.6831
1.53066
1.95586
2.00959
1105.69
1207.67
23.4124
139.911
140.027
1582.09
1368.84
1951.56
0.594757
0.541555
0.61394
0.610646
1.41873
0.685711
0.625129
2.01128
2.00478
1.7267
1.50891
1.33495
1.1959
0.749651
0.819722
1.08029
0.982876
0.896164
1.97308
1.75619
1.5274
1.74006
1.81119
1.77997
765.312
976.108
1148
53.4662
1532.91
1304.33
1833.57
1961.8
0.621455
0.617015
0.683101
3.05496
0.69939
0.634824
1.67086
1.68281
1.48697
1.32162
1.19071
0.750479
0.832169
1.08565
0.991897
0.909468
1.76057
1.57274
1.62301
1.65276
1.63803
1.61587
713.738
612.019
896.963
1138.73
1897.33
1679.28
1524.24
1292.58
1911.25
1981.09
0.660361
0.681194
0.756301
0.681863
0.700276
0.740031
1.54804
1.37306
1.2523
1.13419
0.810669
0.822034
1.06372
0.964322
0.918441
1.57055
1.5248
1.52905
1.50798
1.48163
557.989
507.666
864.097
1195.18
2190.96
1964.86
1473.61
1725.45
1572.56
1349.36
2039.12
2022.6
0.695952
0.723839
0.739425
0.761955
0.822637
1.45043
1.33284
1.23495
1.13748
0.853103
0.878216
1.06159
0.990503
0.932847
1.42033
1.38876
1.34338
2455.85
445.492
441.093
884.215
1369.73
2212.7
2138.05
1260.19
1496.1
1817.23
1713.78
1528.12
2269.07
2098.66
0.726057
0.752573
0.787703
0.820096
1.3213
1.27177
1.20442
1.1331
0.866005
0.909155
1.06607
1.00829
0.953814
2922.61
2425.68
366.559
407.096
990.203
1881.88
2276.9
2426.24
1155.78
1260.42
1550.06
1968.61
2040.73
2051.6
2678.24
2237
3281.8
3048.06
2400.39
314.257
408.432
1333.72
4454.76
2421.01
2930.14
989.066
1163.33
1290.35
1654.65
2223.62
2896.14
4638.39
3463.35
2480.28
3394.9
3675.93
3102.04
2415.91
292.628
487.537
3078.9
2703.15
3777.02
876.894
999.885
1193.18
1365.62
1844.86
2686.63
6776.54
5315.43
3453.2
3907.31
4096.31
3120.55
2526.81
321.707
958.963
3284.29
5364.27
596.904
869.582
1048.54
1261.88
1514.67
2208.09
3717.99
12568.8
2795.81
3916.03
4585.09
4517.52
3182.68
2828.66
573.175
4693.73
129.293
537.051
868.508
1148.9
1397.44
1807.7
3042.61
7543.75
3063.26
3311.06
4523.41
5459.56
4926.49
3412.76
3636.97
10114.2
83.72
121.445
493.381
873.639
1332.51
1665.97
2486.73
6174.44
2418.24
3583.32
4063.2
5417.27
6598.63
5399.48
4131.83
6822.88
91.175
88.1439
117.579
463.028
887.937
1679.34
2289.58
4978.08
1335.57
2821.06
4207.45
5299.62
6782.23
8039.47
6297.03
7096.53
97.2218
99.1886
95.7626
118.786
447.076
922.967
2459.82
4556.48
1075.04
1555.21
3309.18
4970.85
7618.97
8912.07
9722.78
9536.86
97.6948
105.688
110.741
107.943
128.807
449.815
1032.79
5230.68
931.046
1168.05
1777.26
3983.96
5943.51
13014.5
12202.8
11296.2
92.3586
106.142
117.891
127.702
127.76
160.32
520.508
1298.87
947.294
1045.5
1275.09
2046.73
4978.81
7506.15
28327.5
10826.3
85.3096
100.282
118.329
135.869
154.168
163.413
249.582
1060.36
1075.04
1058.2
1172.32
1422.36
2424.88
6670.89
10984.5
78209.4
128.444
89.742
111.808
136.297
164.025
200.824
246.351
662.649
1322.57
1177.52
1182.92
1335.01
1654.79
3036.31
12537.3
14122.9
577.322
121.149
97.4218
128.798
164.457
213.959
307.82
600.106
2509.26
1512.9
1295.33
1344.66
1575.96
2076.2
4243.39
65620.7
901.615
523.266
117.717
109.705
155.396
214.421
328.771
763.87
2907.38
2989.42
1681.27
1456.03
1585.53
1989.52
3005.71
8008.99
1000.67
888.291
481.795
119.34
129.7
202.386
329.373
817.127
2632.15
3323.77
3700.46
1848.49
1706.92
2000.86
2870.23
6045.61
1174.21
1015.59
885.502
451.991
129.953
165.668
310.215
817.224
3162.07
3013.45
3837.67
4947.73
2038.45
2151.95
2889.26
5717.79
1268.81
1185.45
1069.45
890.665
436.162
162.007
249.038
767.063
3264.34
3428.91
3458.12
4524.89
7431.83
2348.78
3115.48
5794.15
1486.13
1271.47
1220.42
1176.01
905.849
438.921
251.59
601.836
3229.04
3710.23
3700.33
4000.75
5541.75
12823.5
3462.08
6261.53
1705.8
1513.69
1305.31
1295.6
1367.8
943.872
509.512
662.104
2903.06
3604.11
4291.04
4070.09
4734.29
7220
25691.1
8596.19
2081.57
1891.07
1763.58
1573.74
1385.74
1439.89
1727.53
1057.47
1047.99
2436.58
3024.39
4007.67
5023.74
4578.24
5879.87
10096.6
65668.8
1696.89
2083
1987.3
1868.47
1684.7
1541.91
1722.44
2538.8
1341.18
2175.38
2406.41
3076.52
4416.69
6031.34
5406.36
8046.32
13147.2
1848.86
1532.24
1655.65
2103.8
2130.39
2033.04
1882.53
1847.69
2376.58
5421.32
2184.96
2379.97
3094.52
4823.88
7409.93
7322.46
14247
1912.61
767.235
1437.53
1435.14
1656.11
2149.79
2380.03
2303.17
2257.86
2553.14
4760
851.655
1214.13
2240.43
2393.1
3160.77
5311.85
9194.67
9403.78
2070.66
600.955
1323.25
1380.79
1716.7
2234.11
2818.28
2787.36
3117.19
5150.4
678.484
1084.3
2377.62
2500.36
3395.03
6243.13
11438.6
2344
480.543
1260.9
1379.09
1878.46
2385.32
3654.36
3857.06
6354.24
563.582
1004.04
2651.81
2796.97
4114.62
9527.23
2826.66
395.898
1254.47
1449.53
2242.97
2651.42
5631.99
7835.2
489.647
972.595
3217.34
3592.34
7032.01
3658.37
339.248
1321.36
1653.56
3194.95
13421.7
450.607
999.537
4587.29
6729.22
5225.91
314.823
1521.37
2238.19
7538.4
448.616
1121.9
9843.99
343.435
2101.42
5136.69
527.317
1509.32
610.744
4999.79
1009.02
3464.58
0.906036
0.866223
0.890947
0.890843
0.920102
0.91626
0.929834
0.929226
0.947147
0.833831
0.854745
0.862953
0.886703
0.893373
0.916591
0.926056
1.00137
1.0258
1.04908
1.08601
1.11281
0.946262
0.958973
0.945317
0.946318
0.954561
0.949062
0.973686
0.96599
0.992034
1.15624
1.17656
0.806156
0.828102
0.839611
0.861517
0.873032
0.892847
0.909463
0.929271
0.945678
0.964019
0.983326
1.00307
1.03355
1.05866
1.10899
1.13576
1.22559
1.24008
0.976862
0.991804
1.0114
1.02753
1.05182
1.07386
1.11442
0.972267
0.976754
0.974667
0.973637
0.992956
0.981217
1.02188
1.00876
1.04181
1.11407
1.14393
1.31076
1.33625
1.22355
1.21774
1.29946
0.786534
0.805914
0.822441
0.841356
0.858979
0.877619
0.897749
0.915325
0.943184
0.963849
0.989191
1.00827
1.07616
1.09858
1.15103
1.16808
1.2441
1.26796
1.34965
1.38618
1.47969
1.49387
1.627
0.999361
1.00867
1.02781
1.04396
1.06907
0.997952
0.999803
1.00857
1.00126
1.03385
1.01939
1.09376
1.06965
1.05299
1.07846
1.13794
1.14192
1.22513
1.251
1.57201
1.36581
1.48733
1.3166
1.36247
0.775571
0.793411
0.813517
0.832548
0.853539
0.871578
0.894095
0.914447
0.935833
0.960965
0.991398
1.03289
1.16263
1.10452
1.22653
1.26266
1.34511
1.36484
1.45031
1.67529
1.72239
1.74111
2.01046
2.04275
1.94632
2.09041
2.09273
2.8126
1.02165
1.03131
1.04779
1.06374
1.14623
1.118
1.02625
1.02336
1.04387
1.03342
1.09658
1.07437
1.05996
1.19813
1.16828
1.08895
1.12834
1.15947
3.64501
3.07051
5.67755
1.23218
1.23541
1.3237
1.35507
1.61031
1.64103
2.30713
1.93661
1.55238
1.61909
0.781387
0.795384
0.820594
0.836543
0.863074
0.879695
0.909034
0.928958
0.991439
0.968479
1.04734
1.07467
1.16993
1.18734
1.36417
1.3608
1.54532
1.55893
1.73241
1.76328
1.94544
22.5913
21.1846
12.4892
2.00876
2.23221
2.40743
2.67603
2.9515
3.10113
3.09124
11.6147
4.93033
1049.73
1328.28
1243.73
1827.54
1541.18
1656
1768.16
1836.89
1.04703
1.04918
1.07232
1.0864
1.14232
1.11815
1.05712
1.05061
1.10025
1.08145
1.07019
1.252
1.21984
1.18996
1.16376
1.107
1.15415
1.25094
1.18742
1.24204
895.028
629.076
109.684
57.4432
25.0146
2.45868
4.12724
5.431
14.8908
1.3665
1.37233
1.38184
1.37257
1.59623
1.62941
1.77271
1.70676
2.28738
961.211
1258.3
1472.89
1399.34
1619.74
1764.62
1798.46
1857.44
1809.3
1760.54
0.872238
0.838108
0.902703
0.891012
0.949006
0.941284
0.999591
0.995541
1.05267
1.0506
1.12005
1.11881
1.23794
1.26865
1.31878
1.33577
1.16888
1.45614
1.26983
1.31997
2.80989
2.80595
3.38516
3.81152
3.72449
58.3819
94.175
300.503
182.522
56.347
39.1301
6.34521
8.39595
12.1457
11.4467
36.1089
16.7642
14.8203
390.114
930.583
614.521
675.501
956.044
1183.41
1309.89
1303.27
1608.6
1596.79
1606.13
1519.2
1824.12
1883.8
1917.92
1741.66
1891.11
1811.8
1.07565
1.07597
1.097
1.11297
1.14477
1.12134
1.10973
1.09199
1.0817
1.30377
1.26924
1.23593
1.20897
1.18381
1.1606
1.12803
1.1741
1.18078
1.24303
1.24823
1.3106
1.24016
185.241
492.083
331.528
848.252
525.152
92.2427
198.24
70.5727
23.6635
1.37544
17.4347
3.04728
6.288
4.36569
1.54817
1.4815
1.66909
1.56269
1.70508
1.69295
1.93646
1.79913
3.0623
949.721
1332.31
846.874
1460.94
1650.79
1261.05
1490.14
1772.06
1777.14
1795.21
1616.05
1797.43
5.17
1.16037
103.692
29.15
2.42378
1.18725
1.78935
1.13792
1.48421
1.09152
1.32536
1.29364
1.24842
1.40538
1.37163
1.61078
2.29241
1.4475
2.74408
4.13606
4.25772
7.77736
22.284
8.64451
9.28855
39.2867
42.6624
14.877
13.5962
19.0687
19.9666
26.6785
28.3065
122.072
185.485
344.695
238.063
132.746
83.7209
49.3197
54.2143
99.0923
66.7153
72.9972
608.485
480.455
648.898
963.353
854.317
1267.38
1172.29
1578.56
1415.6
1475.64
1678.87
1847.62
1773.73
1672.71
1856.58
1938.32
1945.47
1.13365
1.10419
1.102
1.12192
1.14425
1.1257
1.11747
1.14622
1.3585
1.32211
1.28275
1.25211
1.22405
1.19715
1.1811
1.15871
1.40807
1.35052
1.40941
1.46357
1.42428
1.45732
1.19826
1.19399
1.20079
1.22574
1.39212
1.30033
1.33746
1.25561
505.776
397.213
234.235
35.5634
172.514
96.0562
1.47603
1.75624
1.67782
44.9266
4.37009
12.5449
7.75068
1.97611
1.89781
2.08236
2.01102
2.40484
2.10146
5.13778
465.855
1040.86
1313.47
901.425
645.858
1472.93
1208.11
1518.19
992.204
1796.51
1840.75
1923.26
1805.37
1665.72
222.262
246.261
58.9977
11.5549
252.705
218.879
30.4851
11.1304
21.3173
6.40726
13.4793
4.24017
9.34189
2.354
4.41358
10.0709
30.2843
18.3838
37.3243
20.033
26.5693
65.075
101.783
111.569
56.9217
53.9466
120.651
137.456
62.5582
70.1385
95.1562
96.2267
126.474
103.599
402.421
215.666
290.834
268.982
210.869
189.661
238.932
141.087
220.59
715.439
527.238
1197.71
937.084
1045.65
1487.61
1333.53
1675.75
1590.68
1779.72
1720.99
1.43958
1.40581
1.13099
1.14785
1.15066
1.13509
1.13312
1.15847
1.17463
1.32593
1.28102
1.26339
1.22853
1.21535
1.18978
1.18098
1.16283
1.3706
1.33306
1.3531
1.37933
1.33166
1.36311
1.19356
1.2021
1.21641
1.26489
1.51658
1.37658
1.40872
1.30977
91.7053
191.351
291.456
1.6348
1.94043
1.90495
2.34486
2.31568
23.6725
102.258
7.07091
21.6038
2.576
2.33346
3.99792
2.98026
8.19917
314.341
604.438
518.04
1137.53
1171.83
1386.8
1802.17
1939.6
1030.5
1658.65
2063.25
2000.73
2022.12
1875.16
223.085
198.714
102.366
249.116
231.571
290.709
234.685
151.645
319.671
395.978
225.186
107.501
175.433
66.7926
124.813
50.8167
65.8217
89.112
64.3586
143.266
110.987
103.03
103.671
113.181
219.92
241.709
259.829
295.897
188.755
181.48
321.62
339.345
206.523
226.606
290.4
283.402
325.109
552.335
456.718
517.289
358.671
458.249
467.899
415.265
503.804
1028.9
827.361
1386.21
1239.6
1595.01
1516.26
1676.98
1611.73
1.48239
1.42109
1.37562
1.34151
1.16679
1.16268
1.16431
1.17392
1.19209
1.29984
1.27313
1.24797
1.22833
1.20849
1.1949
1.18533
1.29692
1.31646
1.27661
1.30357
1.27943
1.30286
1.20849
1.20924
1.23835
1.33032
1.25406
1.21341
1.68072
1.52419
1.54312
1.41727
1.81458
234.321
140.645
2.20785
2.22108
2.54011
2.60438
3.44051
4.10011
2.53546
26.7063
127.265
31.9209
9.78671
6.30197
28.6042
587.879
389.247
1298.7
1036.69
1762.21
1888.48
2168.24
2180.9
2255.16
2141.47
6.55068
33.2197
256.854
280.885
64.4884
236.901
310.733
252.149
417.66
447.122
256.891
338.192
455.195
436.256
454.392
299.52
376.794
278.146
242.578
228.107
388.29
290.915
400.973
332.479
340.494
455.518
502.958
502.852
531.414
448.491
427.729
379.679
594.464
611.966
472.95
491.774
631.938
628.65
820.999
927.431
805.218
768.203
834.09
745.636
807.019
1283.35
1180.89
1453.74
1385.27
1492.95
1430.9
0.890197
1.61292
1.49827
1.4598
1.41379
1.35988
1.32535
1.29072
1.18099
1.18332
1.1826
1.18491
1.21494
1.26199
1.24581
1.22486
1.21287
1.19851
1.23197
1.25327
1.23239
1.25515
1.24468
1.26406
1.21306
1.27098
1.28459
1.43018
1.25583
1.28145
1.92242
1.60514
1.68134
1.45284
2.26467
2.7119
2.82163
461.869
188.03
2.96821
2.37652
8.9998
4.25955
41.7661
34.5041
22.9507
142.836
231.789
81.0838
1261.43
781.578
1932.6
1713.98
2236.9
2287.25
2503.42
2455.42
3.29833
20.3849
254.276
394.884
41.1016
148.913
413.96
329.855
325.715
438.789
344.939
274.505
602
411.705
540.989
576.306
579.235
583.893
581.526
505.824
496.51
622.389
596.169
604.315
626.396
752.637
708.495
724.054
730.319
747.993
716.106
856.368
645.274
696.877
875.787
836.833
790.238
804.113
931.374
930.912
1010.37
1012.44
1199.23
1053.81
1070.23
1307.34
1251.5
1303.69
1258.77
0.781634
0.837042
0.893324
1.5125
1.46198
1.44294
1.40826
1.39154
1.35813
1.31211
1.25438
1.28782
1.38025
1.40434
1.19921
1.18627
1.17895
1.18039
1.21522
1.19539
1.1911
1.20151
1.21511
1.20599
1.22682
1.2224
1.23845
1.22673
1.26182
1.31407
1.40504
1.45505
1.34421
1.83507
2.31691
1.59768
1.90975
2.59258
3.70615
2.8803
3.90275
7.52417
2.04215
914.45
535.23
37.8555
14.9636
152.302
87.9909
401.747
712.838
301.146
1814.4
1582.07
2285.65
2399.38
2717.34
2723.48
2.4187
12.8125
215.292
451.597
24.6663
97.8859
464.627
483.323
258.637
289.792
473.27
335.316
544.28
478.42
267.332
344.072
668.471
503.154
566.553
538.426
624.424
679.79
678.11
631.901
661.393
720.622
705.053
707.977
857.155
807.02
771.06
755.904
704.888
847.182
869.538
953.195
892.906
901.674
974.572
988.351
956.682
969.366
999.661
1016.52
1189.23
1142.06
1053.8
1180.46
1155.75
0.769972
0.791136
0.822687
0.890109
0.933671
1.44838
1.36857
1.35775
1.33361
1.33293
1.23058
1.2768
1.25673
1.30488
1.33148
1.31987
1.30181
1.32665
1.28939
1.28725
1.24438
1.24589
1.23082
1.19015
1.18801
1.189
1.19277
1.2231
1.18838
1.19738
1.20447
1.2111
1.20839
1.22414
1.2285
1.26122
1.35648
1.296
1.42358
1.58455
1.53415
1.68694
2.20529
2.71957
1.90712
2.3034
3.2868
4.93241
15.2548
10.8923
9.39189
21.5634
75.9792
66.1189
1711.29
1161.48
336.072
312.079
801.717
1249.45
765.978
2263.59
2444.19
2798.27
2966.67
1.95672
7.67271
164.027
428.403
14.3272
57.5688
439.859
556.651
313.486
255.489
544.116
424.473
359.292
293.972
242.565
246.842
564.159
543.068
306.548
428.589
351.366
433.545
542.447
627.428
607.856
596.759
558.842
567.594
511.561
708.507
705.165
591.563
515.954
543.308
530.412
719.322
766.909
974.388
1007.63
1004.37
985.615
991.036
1011.63
1029.76
987.15
994.459
1.31712
0.778955
0.786075
0.806109
0.833577
0.868076
0.933823
0.978749
0.801619
0.799788
0.834656
0.82616
0.87428
0.857914
1.20022
1.21133
1.15695
1.16987
1.10948
1.12637
1.05916
1.08149
0.918356
0.896805
0.964468
0.9386
1.01109
1.0337
0.984238
1.29945
1.28969
1.27294
1.28009
1.24858
1.23759
1.26398
1.25785
1.25578
1.24176
1.26506
1.21756
1.22071
1.17622
1.18212
1.22968
1.19295
1.20975
1.19143
1.20775
1.21014
1.2063
1.213
1.21315
1.22397
1.234
1.23269
1.23219
1.22901
1.32631
1.25595
1.48583
1.3748
1.57028
1.8332
1.72592
2.0447
2.68338
3.92165
2.42039
3.06216
4.50925
13.6303
162.769
101.292
194.194
43.1401
178.255
459.139
570.85
2289.39
1852.46
1140.99
1866.73
1215.69
2889.54
2946.22
1.54449
4.90599
413.418
102.365
196.358
8.69848
34.8022
563.456
596.23
367.422
280.778
588.916
457.233
638.713
238.568
235.144
227.4
422.486
366.656
215.424
255.274
283.495
236.72
375.75
438.213
399.189
355.216
375.505
329.629
388.154
315.736
400.794
254.069
337.355
237.639
321.519
552.516
990.663
950.153
683.253
938.73
895.2
1.23711
0.974058
1.01907
0.812924
0.821287
0.846386
0.879419
0.918192
0.830923
0.833115
0.857976
0.8563
0.891326
0.884941
1.13584
1.14851
1.09661
1.11239
1.05468
1.07222
1.01244
1.03312
0.931205
0.918393
0.970728
0.992885
0.954557
1.24802
1.23878
1.22897
1.24424
1.23658
1.20137
1.20682
1.19661
1.21977
1.16453
1.17085
1.12433
1.13402
1.23017
1.2316
1.23101
1.24247
1.23516
1.24222
1.24424
1.23698
1.24811
1.26803
1.25049
1.25267
1.24842
1.37843
1.30147
1.31076
1.63725
1.45801
1.74573
2.2037
2.08128
2.59254
3.54971
7.71465
3.16784
4.9718
9.86062
74.3595
584.667
738.526
516.841
757.785
200.907
637.606
1122.67
1436.85
1943.84
3091.84
2335.13
1.38976
2.19696
4.32396
234.487
483.913
58.167
142.997
14.7114
543.152
662.116
344.327
251.181
633.893
390.949
665.143
623.143
511.566
507.986
197.482
214.835
283.739
247.466
179.392
191.878
201.33
179.89
237.755
264.19
251.519
223.489
214.57
199.246
170.694
160.207
142.674
124.39
166.118
118.674
708.819
194.859
506.963
2929.52
1.02247
1.09951
0.926592
0.985855
0.848537
0.863848
0.894231
0.863266
0.866559
0.884598
0.885461
0.910681
0.909658
1.08792
1.10111
1.05082
1.06884
1.01253
1.03248
0.977007
0.999748
0.945349
0.967341
0.937071
1.20963
1.20818
1.20324
1.19712
1.15771
1.17084
1.16293
1.19195
1.1228
1.13472
1.08864
1.10001
1.23245
1.21767
1.25806
1.24788
1.32387
1.29693
1.34081
1.32955
1.28008
1.29547
1.34597
1.30479
1.27877
1.37901
1.29786
1.29819
1.5259
1.51554
1.8384
1.81951
2.61535
2.47372
3.95641
2.97992
5.64384
18.168
4.41442
8.10316
52.4
254.182
503.97
1306.5
1435.41
1173.82
1235.9
1628.75
2026.7
2283.62
29.3091
1.18246
1.22744
2.01468
2.71795
8.84286
376.917
91.5754
184.809
625.232
436.774
230.087
299.215
634.21
654.233
319.837
410.418
664.04
607.518
527.011
419.936
171.517
194.328
187.624
178.245
153.368
157.357
152.094
152.957
156.31
166.772
118.748
122.039
95.7567
96.1724
85.784
82.9732
112.643
84.2667
1.00102
1.06138
0.890947
0.912808
0.956144
0.897106
0.913196
0.913463
0.917114
0.935316
0.934256
1.05517
1.07047
1.01955
1.04268
0.990108
1.01112
0.961229
0.983132
0.957365
1.20663
1.18318
1.18141
1.18427
1.12978
1.14634
1.17927
1.14623
1.09631
1.11461
1.06783
1.08324
1.26477
1.24071
1.24023
1.30517
1.27963
1.41898
1.40563
1.39416
1.42633
1.55066
1.50114
1.50282
1.46324
1.4389
1.37239
1.33756
1.51322
1.45104
1.56256
2.03383
1.79625
3.36016
3.48277
2.43743
3.27751
5.40688
5.82108
23.836
73.2025
19.5212
201.944
414.349
740.945
1401.13
1942.78
2010.63
2375.36
8028.81
136.892
1.1002
17.5236
45.7424
1.21684
1.31213
1.37974
2.25428
3.11768
7.95039
372.882
258.42
642.213
584.511
200.731
254.094
699.544
679.929
276.604
367.956
641.854
559.952
427.468
146.726
170.521
125.899
129.963
129.495
119.652
103.221
106.032
86.0016
89.722
80.5151
81.7642
79.4808
82.2306
1.05245
0.934927
0.980129
1.01462
1.02559
0.932269
0.95309
0.943857
0.951832
0.957913
0.959453
1.03392
1.05669
1.00776
1.03021
0.981638
1.00507
0.980579
1.06155
1.17895
1.1779
1.1851
1.16166
1.13988
1.11595
1.18849
1.11464
1.09515
1.09132
1.25956
1.22227
1.28777
1.32974
1.33375
1.41568
1.39631
1.55818
1.59814
1.6558
1.63099
1.85487
1.84328
1.78082
1.59456
1.55488
1.75534
1.71573
1.89089
1.8799
2.66018
2.54614
6.37365
6.56347
6.09013
4.60492
35.5924
26.249
262.492
163.539
591.973
757.427
1115.24
1966.81
272.112
80.9209
134.657
1.25555
1.17161
12.4474
38.5251
1.34763
1.62011
2.19324
2.65827
7.93014
551.223
429.607
715.198
694.773
176.601
232.06
728.939
653.247
532.392
417.856
274.584
125.222
145.492
97.8982
107.16
104.577
86.4619
90.1921
84.3616
84.9523
85.9964
87.683
1.11618
1.18159
0.983536
0.998206
1.0713
1.14027
0.976359
0.99092
0.977256
0.990057
0.989279
0.995764
1.05683
1.03962
1.01759
1.03431
1.01198
1.25363
1.09514
1.0789
1.07859
1.16915
1.17905
1.14507
1.23429
1.187
1.15807
1.12808
1.34404
1.33137
1.42544
1.39041
1.52511
1.51239
1.72262
1.67235
1.92199
2.02216
2.53098
2.3421
2.21251
1.99799
1.91868
2.09436
2.0879
2.41863
2.491
2.46132
5.29913
4.19452
38.7098
13.0013
17.6992
10.2814
284.286
155.447
747.71
518.166
1059.14
941.433
417.505
191.968
282.789
63.0589
124.035
1.43708
1.27782
11.909
32.505
2.60777
1.52929
5.38849
676.862
581.289
757.623
774.66
237.911
173.91
144.464
736.574
544.119
440.043
309.726
254.382
102.058
116.776
87.145
91.0243
85.7309
85.5717
90.9557
89.4912
1.21471
1.32698
1.02695
1.08744
1.14398
1.25206
1.02511
1.05429
1.03574
1.01049
1.04922
1.04781
1.08205
1.05598
1.07434
1.33065
1.28648
1.14468
1.12966
1.14667
1.13444
1.19886
1.26799
1.18079
1.20516
1.1739
1.52973
1.52017
1.45036
1.65857
1.62509
1.87799
1.9914
1.94452
2.3478
2.28664
4.17178
3.21943
3.32105
3.0033
2.81984
2.70727
3.82351
3.85835
3.74698
3.38717
6.44011
23.4474
16.2261
200.498
90.1037
94.5677
585.577
408.817
963.441
783.328
342.147
538.42
645.332
163.776
314.234
48.8064
114.632
1.46368
1.83276
7.57326
31.1413
2.0275
4.61117
794.956
768.154
795.348
775.624
851.119
149.876
174.925
115.954
660.545
503.22
333.847
280.18
171.006
87.3744
97.3329
85.3376
83.452
91.4518
88.6001
1.36921
1.56613
1.10238
1.16852
1.25637
1.42605
1.11169
1.08712
1.14737
1.14371
1.14105
1.13664
1.12922
1.42729
1.3235
1.19926
1.21042
1.18037
1.23736
1.31079
1.25829
1.31326
1.25244
1.85106
1.76212
1.71835
1.57859
2.28977
2.59695
2.39762
2.61268
2.96523
2.79397
3.8915
3.3296
4.98246
5.47047
5.37709
3.63263
8.20611
8.53241
6.6033
75.2984
38.0011
201.655
183.306
507.994
399.476
799.168
707.57
365.522
547.723
677.057
165.412
323.555
45.0331
113.827
2.50923
1.84025
7.93607
5.33242
24.0418
672.102
890.125
880.647
890.075
814.824
864.275
702.79
898.859
126.712
97.0557