/*--------------------------------*- C++ -*----------------------------------*\
  =========                 |
  \\      /  F ield         | OpenFOAM: The Open Source CFD Toolbox
   \\    /   O peration     | Website:  https://openfoam.org
    \\  /    A nd           | Version:  8
     \\/     M anipulation  |
\*---------------------------------------------------------------------------*/
FoamFile
{
    version     2.0;
    format      ascii;
    class       surfaceScalarField;
    location    "20000";
    object      phi;
}
// * * * * * * * * * * * * * * * * * * * * * * * * * * * * * * * * * * * * * //

dimensions      [0 3 -1 0 0 0 0];

internalField   nonuniform List<scalar> 
6926
(
-1.05308
0.0710304
-0.652857
-0.575153
0.174931
-0.941648
0.0740222
-0.11292
-0.539937
0.0688486
-0.756921
-0.752278
-0.0144388
-0.63525
-0.0481789
0.234424
-1.05805
-0.0648818
0.0131677
-0.583536
0.177766
-0.717703
-0.644037
0.466534
-0.586708
0.133342
0.0251469
-0.66014
-0.828081
-0.244412
-0.409726
-0.067918
0.0526743
-0.568293
0.156253
-0.873956
-0.555702
-0.534205
0.000170975
-0.533755
0.257371
-0.680505
-0.165025
-0.767876
-0.57277
-0.794974
-0.217314
-0.210007
0.0233041
-0.38159
-0.191513
-0.574195
-0.122765
-0.751191
-0.896196
0.12969
-0.13117
-0.592823
0.119815
-0.423188
-0.812396
0.072386
-0.511072
0.000171649
-0.528536
-0.00504826
-0.53411
-0.00349319
-0.102483
-0.938837
-0.388219
0.252407
-0.436958
-0.563079
-0.0424531
-0.10126
-0.471843
-0.185245
-0.511715
0.0459093
-0.7971
-0.113066
-0.705418
0.225661
-1.06843
-0.00149961
0.0947435
-0.787325
-0.00262116
-0.533632
-0.788735
-0.00795578
-0.612508
0.000175533
-0.525005
-0.00335992
0.153228
-0.139929
-0.827722
-0.818035
-0.527905
-0.0112531
-0.534207
-0.0323656
-0.0383873
-0.648043
-0.523781
0.0443699
-0.420776
-0.236312
-0.886582
-0.834035
0.036935
0.000159857
-0.699401
-0.00617667
-0.867638
0.024869
-0.983456
0.0335762
-0.727568
-0.256032
-0.533914
-0.0107252
-0.522747
-0.753592
-0.13176
-0.14349
-0.759402
-0.849007
0.000186913
-0.528042
0.00321319
-0.519904
-0.0113607
-0.174014
-0.682409
-0.389418
-0.612318
-0.528253
-0.0172063
-0.534172
-0.0219738
-0.0363954
-0.567278
-0.89008
0.056045
-0.223853
-0.625794
0.143547
-0.0273553
0.275693
-0.391885
-0.332063
-0.558017
0.359358
-0.547874
-0.0835481
0.000177379
-0.61603
0.840962
-0.470747
-0.453763
-0.0328526
-0.958587
-0.0773626
-0.642654
-0.375951
0.0707693
-0.422385
-0.0980924
-0.533891
-0.0226718
-0.521967
-0.00891483
-0.513655
0.584358
-0.592635
-0.069085
-0.425328
-0.512199
-0.437887
0.252504
-0.292857
-0.349065
0.0160357
-0.522934
0.461578
-0.659559
-0.0258718
-0.387626
0.000197183
-0.54668
0.0188242
-0.510652
-0.00603907
-0.51625
-0.0233644
-0.132559
-0.586245
-0.209274
-0.535602
-0.532877
-0.018502
-0.0516421
-0.53761
-0.301366
-0.0149852
0.288996
0.869893
-0.234842
0.300144
0.00805327
-0.053582
-0.346356
-0.284694
-0.00861819
-0.129034
-0.472422
-0.687051
-0.0295159
0.000198059
-0.586713
0.121513
-0.621776
-0.575133
0.242882
-0.991439
-0.0208529
-0.551031
-0.0688957
-0.544592
0.0134379
-0.533916
-0.0348675
-0.521696
-0.0225192
-0.508363
-0.00238066
-0.511076
0.191057
-0.68722
0.672158
-0.357303
-0.38394
-0.0403504
-0.461781
0.0515079
-0.440923
0.000841251
-0.472267
0.0787548
-0.504954
-0.466579
0.107163
-0.41371
0.000211962
-0.580621
0.0341385
-0.529824
0.0379968
-0.524825
0.00253596
-0.528242
-0.027999
0.0949348
-0.0988363
-0.531701
-0.542953
-0.542602
-0.0135093
0.359347
-0.406338
0.0320061
0.413501
-0.286752
-0.344298
-0.325623
-0.0893331
0.20807
-0.895121
-0.551104
0.00945719
0.000227805
-0.596398
-0.00644627
-0.605872
-0.641764
0.0601854
-0.748557
-0.00026853
-0.537325
-0.00140865
-0.543452
-0.0429896
-0.525793
-0.0408309
-0.503384
-0.0173795
-0.493364
0.0130065
-0.523855
-0.188883
-0.497496
-0.494069
0.051125
-0.0133602
-0.478688
-0.509492
-0.0243448
-0.461282
0.034476
-0.540838
0.30676
-0.77359
0.000251082
0.000213221
-0.610629
0.0302202
-0.583766
0.0880805
-0.111286
-0.375542
-0.457051
-0.0686552
-0.552052
-0.0185493
0.00471983
0.00261638
-0.539037
-0.551742
0.360357
-0.328689
0.000337995
0.000267786
-0.635156
-0.0347655
-0.418413
0.000390459
-0.325918
-0.00317797
-0.30606
-0.236257
-0.640765
-0.133745
-0.761376
0.00536268
0.000277352
-0.602038
0.00296428
-0.603474
-0.633404
-0.00539636
-0.688372
-0.0441518
-0.536163
-0.038439
-0.549165
-0.0529973
-0.513627
-0.0641143
-0.456649
0.0143355
-0.494693
0.0282309
-0.551808
0.0543073
-0.5139
-0.467533
0.00716952
-0.514045
0.0096615
-0.48118
0.0131544
-0.464775
-0.0280939
-0.551184
-0.624778
0.0143622
-0.62507
0.000543473
-0.628611
0.0750646
-0.363019
-0.205319
-0.65048
-0.590313
-0.0303936
0.00383108
0.00331997
-0.546188
-0.56646
-0.617999
-0.00680335
-0.605541
-0.0121198
-0.453631
0.000452267
-0.59075
-0.0144015
0.000514342
-0.457323
-0.0388527
-0.503464
-0.108637
-0.665873
-0.00799599
-0.75338
0.011774
0.000328052
-0.61414
-0.0325894
-0.559111
-0.623945
-0.0420482
-0.693768
-0.0531079
-0.536052
-0.0432463
-0.559027
-0.097319
-0.480422
-0.368774
-0.0735401
0.0840416
-0.550504
0.0266138
-0.578094
-0.018017
-0.523977
-0.472396
-0.00509644
0.00681844
-0.482902
-0.515822
0.00921872
-0.467176
-0.0294157
-0.565014
-0.638209
0.0239609
-0.630363
-0.00730259
-0.668038
0.0926231
-0.76518
-0.0304525
0.00622511
0.00398145
-0.556395
-0.590629
-0.619335
-0.017832
-0.606077
-0.0253771
-0.574874
-0.015423
-0.590999
-0.0294795
-0.0118906
-0.562469
0.000578597
-0.496754
-0.0381544
-0.573947
-0.00804385
-0.665825
0.0780458
-0.831426
0.0925005
-0.707007
0.000367243
-0.0311261
-0.435484
-0.359096
-0.295975
-0.735816
-0.073324
-0.560047
-0.0497558
-0.582595
0.332894
-0.617626
-0.221069
-0.157893
-0.549502
0.000387514
0.065667
-0.589557
-0.593879
0.0161519
-0.0156558
-0.537737
-0.478833
0.00295947
-0.5148
-0.00158316
-0.47836
-0.00292266
-0.465836
-0.0296297
-0.58514
-0.659719
0.0156421
-0.638116
-0.0289061
-0.691709
0.019152
0.00257495
-0.0149361
-0.544034
-0.618506
-0.613729
-0.0422194
-0.602414
-0.0366914
-0.570492
-0.0359301
-0.593475
-0.0384191
-0.0324985
-0.549884
-0.00215609
-0.559735
0.000635182
-0.535544
-0.00249436
-0.579496
0.0851709
-0.67295
-0.12691
-0.704516
0.492506
-0.395559
-0.25484
-0.302074
-0.665724
-0.366067
0.0226576
0.108155
-0.526371
-0.0830665
-0.69805
-0.0594169
-0.606244
0.0557556
-0.607714
-0.527254
0.00040993
-0.600873
0.00738174
0.027473
-0.600878
0.00891415
-0.49067
-0.558453
0.0251905
-0.0333405
-0.47021
-0.504545
-0.0267963
-0.47238
-0.031594
-0.612963
0.0193085
-0.490353
0.414872
0.0561731
-0.69999
0.0239236
-0.625175
-0.103721
-0.0495365
-0.0104721
-0.484025
-0.648891
-0.600068
-0.0673264
-0.582229
-0.0545303
-0.555978
-0.073427
-0.0246019
-0.596046
-0.0822996
-0.506177
-0.00588044
-0.54616
0.0103003
-0.5694
0.000694327
-0.538732
0.0367387
-0.531064
-0.532693
-0.292503
0.152247
0.00353781
-0.663141
-0.0224783
-0.682038
0.105473
-0.771196
0.562669
-0.709354
0.00179855
0.0448118
-0.572982
-0.525879
0.000423446
-0.0388868
-0.603407
-0.00156593
-0.643565
0.0299703
-0.610212
-0.601387
0.000923898
0.0137511
-0.607247
0.0116417
-0.601688
-0.505824
0.0617753
-0.0301366
-0.501848
-0.453242
-0.123233
-0.379284
-0.0680921
-0.546437
0.960472
-0.645463
-0.315008
-0.368036
0.541164
-0.153819
-0.562196
-0.296193
0.42627
-0.184481
0.173082
0.696716
0.319928
0.192337
0.292666
-0.0587328
-0.322825
-0.614442
-0.947792
-0.474946
-0.576568
-0.688684
0.146412
-0.553685
-0.189529
0.00326028
-0.581547
-0.605558
-0.0639154
-0.316085
-0.371772
-0.00292014
-0.509137
0.0193017
-0.555161
-0.42445
0.135484
0.0237261
-0.592432
0.00075019
-0.502744
-0.439731
0.0609134
-0.490552
-0.195067
0.100156
-0.782194
0.0632701
-0.453666
-0.721549
-0.0606444
-0.00898801
-0.762208
-0.67353
-0.00521565
-0.0725227
-0.495243
-0.531538
0.0004434
-0.599163
-0.00180022
0.0201539
-0.593591
-0.168
-0.455412
0.0259499
-0.622411
-0.604321
-0.00200195
0.0475964
-0.717377
-0.581461
-0.575678
-0.305455
-0.437185
-0.277252
1.01864
-0.0482192
0.373176
-0.504029
0.427086
-0.0704031
-0.551934
0.530858
-0.132742
-0.669086
-0.179041
-0.0184523
-0.703097
0.656844
-0.0177739
-0.657522
0.604484
0.0216252
-0.0438792
-0.58223
-0.0824132
0.77913
-0.410597
0.135584
0.46735
0.411032
0.0172173
0.397705
-0.0293513
-0.40193
-0.788189
-0.638692
0.208536
-0.430735
-0.397487
0.165328
-0.592802
0.0450644
-0.690527
-0.429444
0.179022
-0.174028
-0.0824008
0.23892
-0.472604
-0.457093
0.0359147
-0.52575
0.0453779
-0.576813
-0.364637
0.0603906
0.028705
-0.620386
-0.442625
0.000793994
0.520224
-0.3621
-0.094854
-0.104287
0.682707
-0.0865081
-0.133059
0.595873
-0.00916271
-0.550786
0.574416
-0.00200537
0.0375095
-0.799718
-0.708544
0.142092
-0.261262
-0.376073
-0.389914
0.000467949
-0.598116
-0.000604285
-0.0101986
-0.595923
0.0799111
-0.647552
-0.812685
-0.611064
-0.0133481
0.14187
-1.1365
-0.745045
0.984561
-0.10559
-0.188554
0.462202
-0.00174778
-0.611502
0.526926
-0.0481664
-0.727597
-0.0629464
-0.0407925
-0.660609
-0.743889
0.049548
-0.0582196
-0.573559
0.00271252
0.637805
-0.00300306
-0.637515
-0.498525
0.0137547
-0.00183402
0.45543
0.792884
0.329875
0.0793231
0.410295
0.00462688
0.434988
-0.00213709
-0.20739
-0.939585
-0.787043
0.277335
-0.509494
0.0405974
-0.588336
0.0950518
-0.546659
-0.260171
0.0745561
-0.366609
-0.0675902
-0.0821522
0.111776
-0.502228
-0.50333
0.056773
-0.537145
0.102098
-0.650206
-0.38304
0.000805902
0.0130721
-0.632664
0.423706
-0.466708
-0.0518517
-0.0471903
-0.547127
-0.0526403
-0.0377619
0.566588
-0.00133428
0.637962
-0.00216216
0.116149
-0.915867
-0.853656
-0.0495996
-0.571663
0.766505
-0.669631
-0.0974261
0.000551447
0.000517727
-0.595948
-0.00169998
0.00124188
-0.597769
-0.243689
-0.426552
0.000610038
0.707355
-0.416078
-0.340877
0.0464549
-0.125529
-0.640701
-0.78695
-0.475078
-0.0433891
1.01381
0.84137
-0.0610597
-0.0747819
0.550938
-0.0257597
-0.633537
0.526806
0.0585644
-0.750204
0.0537206
0.640016
-0.639906
-0.00311266
-0.895642
0.151752
-0.697957
-0.197684
-0.567076
0.0622611
-0.269416
-0.366404
0.692615
0.100269
-0.00534206
0.00327784
-0.00335887
-0.637434
-0.432986
0.639951
0.145353
0.45385
0.0357679
0.442161
-0.00254644
0.580506
-0.0317044
-0.136961
-0.170051
-0.632573
-0.646669
0.123
-0.591897
0.0769512
-0.570235
0.0872034
-0.522087
-0.309243
0.0007589
-0.377489
0.00065608
-0.0673774
0.074585
-0.509436
-0.513935
0.0737336
-0.508781
0.00130478
-0.638439
-0.635259
0.00340011
0.425137
-0.477158
0.000169846
0.000457546
-0.529565
-0.000233898
-0.000739145
0.637922
-0.00129455
0.639813
-0.00195957
0.223785
-1.13965
0.727297
-0.272302
-0.698684
-0.0174115
0.163616
-0.562283
-0.587833
-0.58882
-0.00661015
-0.590814
0.00254567
0.00496815
-0.604437
-0.699534
0.000679368
0.0561336
-0.646338
-0.673599
-0.283403
0.0894983
-0.538666
-0.224431
0.399852
-0.577113
-0.715927
0.896987
-0.0131858
-0.0388364
0.425006
0.510817
0.559343
0.454466
0.822653
-0.0260029
-0.00233278
0.544943
-0.0438968
-0.609178
0.526644
0.141099
-0.910894
0.355436
-0.63883
-0.00443459
0.473111
0.156672
-0.632897
-0.590843
-0.245649
-0.483699
-0.304828
0.0128603
-0.624914
-0.70754
0.218499
0.0326799
0.00365747
-0.00155167
-0.63954
-0.416468
0.542553
0.0566506
0.480881
-0.00295224
0.611598
-0.0336385
0.569845
-0.0566062
-0.0315725
-0.511502
-0.555242
-0.102571
0.0483237
-0.484418
0.0553627
-0.570308
0.0635111
-0.546543
0.0692792
-0.516781
-0.636071
0.00157148
-0.636544
0.00112904
-0.0685708
0.0673334
-0.508198
-0.508772
0.0093943
-0.51687
-0.636493
0.00145459
-0.63698
0.00089311
-0.637373
0.00056342
-0.63771
0.000102418
-0.00052674
0.639434
-0.000915272
0.421407
0.0497448
-0.390772
0.386645
0.1608
-0.191984
-0.947669
-0.0519133
-0.838754
-0.0417824
0.135336
-0.655836
-0.624647
-0.581787
-0.0292609
-0.533328
-0.0459133
0.0450145
-0.522208
-0.752134
0.00068687
-0.484452
-0.161206
0.323694
-0.765471
-0.675636
-0.424206
-0.475861
0.85995
0.012764
0.415482
0.405632
0.265075
0.575413
-0.508712
1.06806
0.456571
0.831368
-0.000401051
-0.0818582
0.534535
-0.0517885
-0.51931
0.526401
0.134008
0.130855
-0.294729
-0.634961
-0.00542079
-0.542927
-0.0944043
0.276526
-0.179184
-0.488114
0.519704
0.0555287
-0.433375
0.129315
-0.320853
0.00390813
0.0105195
-0.653967
-0.283245
0.540898
-0.00336595
0.62756
-0.0189147
0.640157
-0.103951
0.538643
-0.0607141
0.0663615
-0.593139
-0.00806455
-0.455114
-0.507944
-0.038919
0.0200482
-0.465547
0.0390165
-0.545814
0.0533202
-0.530584
0.0615388
-0.510986
-0.636496
0.00157429
-0.636966
0.00159855
0.00968511
-0.509063
-0.00287127
-0.495642
-0.532364
0.0169484
-0.637537
0.00146456
-0.638186
0.0012124
-0.638844
0.000760509
6.28027e-05
0.412485
0.00800669
0.389094
0.0472958
-0.24137
0.140905
0.261265
0.221554
-0.186397
-0.0411858
-0.906483
-0.0344827
-0.845457
0.0117443
0.0683239
-0.735904
-0.642164
-0.376224
-0.311853
0.115616
-0.446826
-0.315354
0.0936334
-0.300488
-0.787351
0.000734466
-0.443282
-0.0404832
-0.102717
-0.373843
-0.0768792
-0.620268
-0.486378
-0.177651
1.04812
0.734723
0.333332
0.290065
-0.272849
0.388416
0.0702107
0.484929
0.133349
0.898635
0.820535
0.0364139
0.726612
0.0120647
0.525955
-0.0513426
-0.497911
0.52611
0.105809
-0.437326
0.0702701
-0.00544351
-0.618243
-0.00619917
0.29707
-0.104371
-0.371883
-0.527854
-0.0204933
-0.0989308
-0.483588
0.00401724
0.0483327
-0.706317
0.600082
-0.00365494
0.645974
-0.0217801
0.625287
-0.00404457
0.508067
-0.0733744
0.520725
-0.0554834
-0.0934223
-0.538636
-0.00725251
-0.427813
-0.47618
-0.0256207
0.00965108
-0.449578
0.0321161
-0.52461
0.0488658
-0.517911
-0.0168114
-0.497046
0.542547
-0.513807
-0.0271411
0.011757
0.024208
-0.516323
-0.00451317
-0.466921
-0.477944
-0.0343984
-0.447588
-0.029144
0.424793
-0.0122447
-0.022035
0.390892
0.00620845
0.114819
-0.163825
0.189911
0.42338
0.225028
-0.1673
0.240986
-0.130313
0.0418676
-0.94835
0.0355844
-0.839174
-0.752517
0.00075101
-0.271671
0.0877026
-0.551936
-0.467908
0.101015
-0.454207
0.00999701
-0.413202
-0.430826
-0.0117211
0.00881849
-0.423145
0.0317427
-0.564308
-0.548058
-0.110582
0.789901
0.187905
0.587371
0.624716
0.110008
-0.468175
0.563637
0.23787
-0.0251287
0.483755
0.0814394
0.536839
-0.0511516
0.481611
-0.804699
0.715487
0.101277
0.0894349
0.52122
-0.046453
-0.509048
0.525769
0.0890872
-0.584187
0.145409
0.125856
-0.563208
-0.00670216
0.273614
-0.322502
-0.0554836
-0.565096
0.0310419
-0.0593246
-0.41149
-0.484322
-0.0197596
-0.711341
0.200875
-0.195851
-0.0690221
-0.355518
-0.00681477
0.608353
-0.00484693
0.530404
-0.0263817
0.50752
-0.0601696
-0.0490554
0.514792
-0.0347691
-0.529487
-0.00881787
-0.409344
-0.452881
-0.0229522
0.00632934
-0.432955
0.0306676
-0.506411
-0.0140575
-0.520665
-0.464141
-0.0374183
0.609105
-0.494711
-0.141535
0.104539
0.00420681
-0.366588
-0.457816
-0.0712929
-0.434359
-0.052601
0.416125
-0.0374774
-0.0402695
0.297586
0.132002
-0.159962
0.309249
0.0406233
0.21152
-0.146454
0.21605
-0.142364
0.230359
-0.0870577
0.193167
-1.14152
0.0429453
-0.688952
-0.710301
0.00072874
-0.426439
-0.00363627
-0.122847
0.0875764
-0.516666
-0.48974
0.0645734
-0.508784
0.00118788
-0.405571
-0.423944
-0.0109215
0.0516263
-0.528358
-0.531201
-0.0130471
0.759816
0.424796
-0.107343
0.472448
0.055607
0.557094
0.0369011
0.525341
0.599579
0.0251364
0.55599
0.117655
-0.277573
0.422324
0.0931197
0.0382731
0.526922
-0.00172712
0.487415
0.286285
-0.0822474
-0.026735
0.626314
-0.820419
0.729093
0.192603
0.126846
0.0480106
0.796662
0.51828
-0.0389637
-0.400053
0.525436
-0.0362953
0.622534
0.232415
0.36789
-0.684679
0.112881
-0.357947
-0.0238792
-0.500014
0.0467342
-0.00700864
-0.424241
-0.544982
-0.006387
-0.00565101
-0.545107
-0.146387
-0.0416064
0.510831
0.547485
-0.0219277
0.534117
-0.0529789
-0.0521507
0.506773
-0.0378551
-0.514584
-0.0100858
-0.392929
-0.432299
0.0258779
-0.0268754
-0.431957
-0.340158
-0.119777
0.00892903
-0.529398
-0.51809
-0.0399928
0.506742
-0.388753
-0.259524
-0.200004
0.633416
-0.318933
-0.367084
0.17337
-0.251054
0.511163
0.190197
0.151961
0.421278
-0.169135
0.219951
-0.150354
0.207915
-0.11992
-0.937461
-0.204056
0.305846
-0.731495
-0.263304
-0.405074
0.000619725
-0.425075
-0.00063528
-0.42439
-0.00319096
-0.0836666
0.075586
-0.508585
-0.508833
-0.00262301
-0.504973
-0.417811
0.00131803
0.0558328
-0.508604
-0.513223
-0.87049
-0.066971
-0.88764
0.0171495
0.018534
0.633938
-0.00779674
0.535852
0.0546772
0.539318
0.036822
0.526792
0.552874
0.0282526
0.477436
0.0625417
0.387912
-0.00850662
0.040023
0.485172
0.407323
-0.00215614
-0.0497568
0.575896
0.684392
-0.0580777
0.746014
-0.0616222
0.906461
-0.160447
0.362532
-0.343711
0.945396
0.0392691
0.685139
0.452861
0.94511
0.131907
0.68329
-0.516012
0.504261
-0.029856
-0.0295396
0.525148
-0.193554
0.169377
0.748177
-0.518134
0.131001
-0.373101
0.00814494
-0.423194
0.0456871
0.545783
-0.00394955
-0.00571096
0.435861
-0.19206
-0.390188
-0.301283
0.219009
0.0471349
-0.0421456
0.499272
0.505815
0.560936
-0.0487464
-0.085533
0.539327
0.0313633
-0.52007
0.0241084
-0.447479
-0.395696
0.0147333
-0.0348086
-0.411882
-0.511256
-0.126611
0.00338022
-0.572771
0.47158
-0.557734
-0.23968
0.538529
-0.309737
-0.0385953
0.323405
0.256131
-0.144589
0.213826
-0.16301
0.207231
-0.14967
-0.839777
-0.0957737
-0.668837
0.00045875
-0.424755
0.000299293
-0.424659
-0.000365557
-0.422411
0.00140946
0.0122386
-0.0265665
-0.494257
-0.499217
-0.508327
0.00467259
0.034374
-0.516234
-0.500797
0.523465
-0.325293
0.164361
-0.848508
-0.0582405
-0.307893
0.0595931
0.566549
0.0523634
0.538165
0.049473
0.526667
0.0893548
0.47746
0.485379
0.0203095
0.432915
0.0175386
0.401399
-0.00258258
0.0315228
0.451493
0.467139
-0.0315164
-0.207906
0.725724
-0.104374
0.363607
-0.407557
0.209588
-0.127325
0.667539
-0.00343753
-0.599656
-0.151613
-0.092563
0.394545
0.682471
0.431326
0.416079
0.588438
0.154445
-0.0851494
0.685853
-0.521717
0.485481
0.00638023
-0.0261086
0.0297378
0.524885
0.486811
-0.0434761
-0.392375
0.100183
-0.367519
0.0401052
0.598805
-0.0418188
-0.202906
0.282829
-0.271983
-0.252482
0.234028
-0.321524
0.148158
-0.0990513
0.519333
-0.00848762
0.408708
0.575516
-0.0849355
0.0268915
-0.532228
0.040196
-0.484295
-0.390309
-0.0453842
-0.0721984
-0.2943
0.671495
-0.541343
-0.369832
-0.0278868
0.245351
-0.47968
0.162259
-0.458251
0.469771
-0.252236
0.260113
-0.190876
0.216132
-0.171911
-0.764789
0.000178722
-0.424749
0.000453162
-0.424919
0.00055912
-0.424245
0.00146813
-0.527626
0.0207084
0.0041241
-0.0117466
-0.486635
-0.49042
0.0523962
-0.541738
-0.460147
-0.436388
0.292855
-0.822835
-0.000194662
-0.0794834
0.144266
0.523654
0.539429
0.0612388
0.5264
0.140194
0.475828
0.0746784
0.434305
0.446754
0.00647081
0.421925
-0.00298686
0.0168821
0.432028
0.42062
-0.00538264
0.297179
0.0190669
0.604567
0.0562193
-0.315518
0.0887186
-0.424692
-0.0181506
0.582165
0.0189638
-0.52364
-0.0526649
-0.0340377
0.241961
0.594955
0.572891
0.400101
0.33912
0.190864
0.524727
0.438072
0.0402514
-0.630726
0.378801
0.258305
-0.131949
0.479841
-0.144516
-0.072419
-0.0529406
0.525461
-0.339801
0.0724652
0.584487
-0.0507899
0.242694
0.0698096
-0.221892
0.212105
-0.262418
0.174923
-0.297166
0.105523
-0.660973
0.413099
0.197084
-0.226575
0.269712
-0.0875791
-0.0175811
-0.560031
0.146239
-0.65842
-0.316268
-0.137008
-0.47356
0.247653
-0.455226
0.268312
-0.27822
0.193665
-0.383604
0.23342
-0.225543
0.219788
-0.194533
-0.424823
0.000252696
-0.425175
0.00070932
-0.425131
0.00144531
-0.557161
0.0310027
-0.0496437
-0.0710467
-0.365944
-0.519356
0.143598
-0.702917
-0.387596
-0.529218
-0.000761542
-0.424833
-0.000184805
-0.074542
0.525777
0.526125
0.16662
0.499974
0.181991
0.368515
0.0308719
0.420315
0.431761
-0.00336555
0.00502438
0.424017
0.430059
-0.00368086
0.453017
-0.00389058
0.513129
-0.0038929
-0.439105
-0.00139436
-0.455169
-0.00208726
0.535805
-0.00371216
-0.505079
-0.00275468
-0.00331149
0.238915
0.52484
0.525095
-0.203385
0.596163
-0.288918
0.516721
0.0419093
0.061575
0.418394
0.101698
-0.36528
0.479069
-0.189628
0.199509
0.515579
-0.358121
0.206038
-0.236653
0.18634
-0.257248
0.135005
-0.196076
0.251054
-0.245073
0.246081
-0.0873051
0.358953
-0.138309
-0.558729
-0.0242629
-0.386504
-0.128397
-0.369426
0.116004
-0.377566
0.228649
-0.273449
0.158331
-0.313286
0.217592
-0.223347
-0.425358
0.000434972
-0.425656
0.0012349
-0.556065
0.00034984
-0.0955152
-0.658025
-0.583868
-0.162849
-0.678377
-0.424764
-0.000830496
-0.425461
-8.15191e-05
0.179382
0.513364
0.515531
0.173888
0.508076
-0.0040521
0.403439
0.00595127
0.419388
0.421548
-0.00089686
0.421216
-0.00334907
0.421624
-0.00429812
0.422291
-0.00456017
-0.424525
-0.0016332
-0.424127
-0.00248575
0.422972
-0.00439319
-0.423597
-0.00328454
-0.00393619
0.208105
0.516499
0.529561
-0.250831
0.481714
-0.343872
0.277011
0.108771
0.136096
0.135958
0.444809
-0.127436
0.317142
-0.188443
0.198129
0.505894
-0.23295
0.202336
-0.227571
0.156662
-0.209341
0.227444
-0.216526
0.253266
-0.136052
0.278479
-0.213458
-0.473669
0.00441533
-0.274915
-0.0970576
-0.267953
0.0853602
-0.304595
0.192198
-0.248056
0.142198
-0.263286
-0.426013
0.000791994
-0.51476
-0.0400705
-0.105063
-0.715812
-0.688581
-0.492832
-0.399003
-0.425429
-0.000862846
-0.426236
0.000140717
0.179718
0.507534
0.506806
-0.017269
0.521293
-0.0048221
0.414213
0.419988
-0.00149694
0.420848
-0.00420952
0.421776
-0.00522593
0.422669
-0.00545345
-0.425206
-0.00185628
-0.424789
-0.00290194
0.423488
-0.00521176
-0.424207
-0.00386711
-0.00465514
0.212534
0.502093
0.491263
0.133704
0.483969
-0.398462
0.379796
0.182444
-0.115349
0.296438
0.0171263
-0.00302345
0.491791
-0.204125
0.178891
-0.183722
0.207041
-0.161077
0.23062
-0.12763
0.245032
7.48923e-05
-6.11913e-05
6.43094e-06
-2.01506e-05
-0.190801
-0.379926
0.00413162
-0.193687
-0.0748447
-0.188976
0.0716927
-0.23409
9.53053e-05
0.000135511
-0.000155937
-0.510883
-0.00308468
-0.401814
-0.326838
-0.119658
-0.246265
-0.349889
-0.275346
-0.337144
-0.225981
-0.363822
-0.426252
-0.000846975
-0.499432
-0.011311
0.0244372
0.499495
0.514702
-0.0224165
0.538887
0.418383
-0.00566686
0.420583
-0.00640962
0.422081
-0.006724
0.42316
-0.00653294
-0.42602
-0.00208806
-0.425552
-0.00337001
0.424104
-0.00615576
-0.424911
-0.0045081
-0.00546163
0.0692572
0.55571
0.568327
0.156846
0.509567
-0.0614314
0.325878
-0.0864541
0.255263
-0.0258757
0.231744
0.362458
0.0351367
0.430778
-9.54006e-06
9.36127e-05
-0.000145278
-4.6062e-05
5.23576e-05
1.34033e-07
-0.154084
-0.300686
0.00312135
-0.125115
-0.0618787
-0.123976
1.01766e-05
0.000540307
-0.000455187
-2.49962e-05
0.000114438
0.00130402
0.00363808
-0.00493194
0.16447
-0.569368
-0.408633
-0.30314
-0.322095
-0.247649
-0.315476
-0.20715
-0.310756
-0.494358
-0.00592077
-0.477788
-0.102891
0.0432889
0.491343
0.535574
0.54282
-0.00959961
0.498823
0.0375875
0.451361
0.0407383
0.423186
0.0216419
-0.487128
-0.00931798
-0.451293
-0.0392053
0.413277
0.00375262
0.421769
-0.0139534
-0.0340314
0.315115
0.39744
0.100711
0.347424
-0.0221337
0.261557
0.256946
0.289914
0.0331717
0.0986368
0.23065
0.110111
0.353838
-1.36124e-05
-7.93658e-05
8.3436e-05
9.71565e-05
4.88054e-05
-0.000103996
0.000106538
-2.42949e-06
-0.132812
-0.229753
-1.38701e-06
0.000516697
-7.70766e-05
8.74991e-05
0.00163014
0.000852299
-0.00117845
0.000977145
0.00265953
-0.423041
-0.288732
-0.284005
-0.285739
-0.240816
-0.28181
-0.182706
-0.260863
-0.489685
0.00597586
-0.175496
-0.350436
0.106406
0.495049
0.63238
0.485379
0.184589
0.432053
0.0940646
0.406673
0.0470211
-0.550904
0.0519008
-0.43251
-0.157599
0.39705
0.0133764
0.401725
-0.0186291
-0.0648161
0.176548
0.321603
0.0620946
0.263195
0.135663
0.21992
0.190651
0.27581
0.12803
0.238282
0.207109
0.274759
5.35201e-05
-0.000556347
0.000489212
8.94071e-05
-7.16115e-05
0.000137876
1.74417e-05
-0.000125811
0.000126673
-3.30571e-06
-0.00160443
-0.0048094
0.00646731
0.00188352
0.000714567
-0.000967964
-7.31555e-06
0.000446927
-9.83833e-05
6.00586e-05
0.0012351
0.000594315
0.000749674
0.00190254
-0.303869
-0.268868
-0.270014
-0.256541
-0.217
-0.247516
-0.16607
-0.313295
-0.51053
-0.402428
-0.0562011
0.42772
0.274438
0.416055
0.196254
0.394942
0.115178
0.378477
0.0634869
-0.296146
0.0732557
-0.179538
-0.364019
-0.0897261
0.368877
0.0229756
0.365378
-0.0151302
-0.0634568
0.125419
0.258279
0.170351
0.240219
0.15382
0.247409
0.182684
0.22595
0.237732
0.219711
6.21436e-05
-0.00052908
0.0001251
-5.8867e-05
0.000146588
-2.49188e-06
-0.000127936
0.000128671
-4.06393e-06
-0.00211742
-0.000935773
0.00144871
-0.00123098
-0.0035163
0.00217157
0.000932489
-0.00122056
0.00143493
0.000514733
-8.25621e-06
0.000356795
-0.000103854
3.59566e-05
0.000950647
0.000393312
0.000577352
0.00131692
-0.303851
-0.235031
-0.249878
-0.223663
-0.420059
-0.197087
-0.355287
-0.120973
-0.212814
-0.0692168
0.311498
0.200672
0.346315
0.161437
0.348398
0.113095
0.341978
0.0699064
-0.29124
-0.101112
-0.303098
-0.0778682
0.333107
0.0318469
0.322835
-0.00485861
-0.0437198
0.162831
0.231208
0.1822
0.20658
0.223651
0.17826
-0.0025969
-0.00095693
0.00143662
4.95294e-05
-0.000453534
0.000134631
-4.69299e-05
0.000139025
-1.28747e-05
-0.000120265
0.00011975
-3.59123e-06
-0.00159316
-0.00057357
-0.000955186
-0.00251161
0.00240518
0.000681867
-0.000915489
0.00166803
0.000699363
0.00109972
0.000365665
-7.06799e-06
0.00026
-0.000100528
1.61858e-05
0.000732018
0.000238628
0.00045052
0.000859334
-0.289876
-0.195033
-0.31411
-0.172853
-0.283403
-0.15168
-0.230475
-0.122145
0.268683
0.155639
0.29704
0.133081
0.306626
0.103509
0.305408
0.0711245
-0.242936
-0.0886505
-0.264762
-0.0560427
0.297548
0.0397067
0.28456
0.00812973
-0.023922
-0.00335949
-0.00179782
0.00256054
-0.0019313
-0.000618762
3.31829e-05
-0.000352104
0.000129345
-3.72912e-05
0.000123221
-1.63945e-05
-0.000105334
0.00010508
-3.38637e-06
-0.00120617
-0.000322585
-0.00074978
-0.00172866
0.00260695
0.000961114
-0.00116291
0.00185403
0.000495867
0.00129439
0.000504666
0.000849222
0.000248449
-5.04864e-06
0.000164505
-9.24042e-05
3.21544e-06
0.00056859
0.000120445
0.000352925
0.000501358
-0.00443951
-0.00304158
0.0041217
-0.00250888
-0.00122012
-0.00143352
-0.000391334
1.90494e-05
-0.000241847
0.000114406
-2.85511e-05
0.000100758
-1.21258e-05
-7.91774e-05
7.57909e-05
-0.000917465
-0.000154863
-0.00059029
-0.00111933
0.00256898
0.000145405
-0.00010744
0.00204713
0.000767987
0.00143349
0.000356778
0.00100292
0.000350947
0.000653843
0.000163286
-2.85394e-06
7.49336e-05
-7.59621e-05
0.000436946
3.62495e-05
0.000276915
0.000221589
-0.00574303
-0.0049782
0.00628098
-0.00340476
-0.00214569
-0.00186103
-0.000792568
-0.00107337
-0.000235403
9.33201e-06
-0.000136843
9.10988e-05
-1.89634e-05
6.3665e-05
-0.000697464
-4.76316e-05
-0.000466633
-0.000643361
0.000829257
-0.00662296
0.00836266
0.00203488
0.000157656
0.00160953
0.000591909
0.0011129
0.000246795
0.000779489
0.000225181
0.000503836
9.65156e-05
-1.02852e-06
0.000325838
-1.29103e-05
-0.0078008
-0.0118303
0.0138885
-0.00458138
-0.00380199
-0.00256763
-0.00143897
-0.00137122
-0.000494599
-0.00079526
-0.000137597
2.3969e-06
-4.82047e-05
4.47015e-05
-0.000529382
1.52486e-05
-0.000364454
-0.000276509
-0.000244991
-0.00288119
0.0039554
0.000583721
-0.00517182
0.00161907
0.000148142
0.00127451
0.000430276
0.000862213
0.000164166
0.000600853
0.000127983
0.000374861
4.76478e-05
0.00020765
-0.00022056
-0.00668264
0.00453974
-0.00565544
-0.00650449
-0.00990585
-0.00360467
-0.00276714
-0.00191027
-0.000899921
-0.00100913
-0.000280564
-0.000592255
-7.47253e-05
-3.50322e-06
-0.000385382
3.63502e-05
-0.000480491
-0.000165195
0.000400716
-0.000271571
-0.00202591
0.000392786
-0.00394557
0.00128787
0.000134784
0.00100594
0.000286402
0.000669965
9.5181e-05
0.000453948
4.86542e-05
0.000255297
-0.00628181
-0.00102019
0.000620596
-0.00559146
0.00363116
-0.00543712
-0.00807006
-0.00281632
-0.00186024
-0.00138592
-0.000523123
-0.000730353
-0.000142143
-0.000430306
-2.98012e-05
-0.000243662
0.000280013
-0.000466287
4.74849e-05
-6.1698e-05
-0.000414861
-2.1914e-05
-0.000278526
-0.00135459
0.000248957
-0.00290667
0.00102026
0.000120592
0.000787792
0.000168363
0.00050459
4.47095e-05
0.000303952
-0.0046547
0.00833628
-0.00996231
-0.00531581
-0.00129655
-0.00466223
0.00286683
-0.00451711
-0.00636696
-0.00216465
-0.00109142
-0.000978392
-0.000275207
-0.000519201
-5.28439e-05
-0.000273463
-0.000282056
0.000728853
-0.000913096
-0.000400553
3.31703e-05
-0.000352
5.15384e-05
-0.000271018
-0.00083463
0.000139953
-0.00202649
0.000806483
0.000102082
0.00060559
6.70741e-05
0.000348661
-0.0029428
0.00703384
-0.0087489
-0.00386598
0.00688917
-0.00448334
-0.00148195
-0.00386405
0.00221675
-0.00377059
-0.00474833
-0.00160712
-0.000473969
-0.000668907
-0.000125666
-0.000326307
2.55651e-06
0.00100962
-0.00129422
-0.000237744
0.000566027
-0.000340771
2.19522e-05
-0.000294389
7.49003e-05
-0.000253151
-0.000441429
5.4963e-05
-0.00127516
0.000640998
6.69351e-05
0.000415736
-0.00145871
0.00434957
-0.00583534
-0.00236697
0.00553193
-0.00318456
0.00559611
-0.00379837
-0.0015481
-0.00319594
0.00168798
-0.00314479
-0.0031921
-0.00111741
-4.02067e-05
-0.000452001
0.00029464
0.00103434
-0.00132641
2.07052e-06
0.000769795
-0.000198816
0.000424039
-0.000288221
1.57746e-05
-0.000242797
6.44481e-05
-0.000227038
-0.000159304
-2.49387e-05
-0.000609431
0.00048267
-5.71823e-06
0.00490486
-0.00635846
-0.00119386
0.00317595
-0.00189381
0.00423321
-0.00263642
0.00443546
-0.00323869
-0.00154963
-0.00261839
0.0012204
-0.00261966
-0.00166474
-0.000492157
0.00048626
0.000761629
-0.000953227
0.000247396
0.000789018
1.65742e-06
0.000569327
-0.000165223
0.000301021
-0.000240341
1.33999e-05
-0.000198802
3.60552e-05
-0.000190538
6.43803e-06
-0.000126761
0.00140306
0.00474754
-0.00615676
-5.64199e-06
0.00371581
-0.000976339
0.00225824
-0.00150837
0.00310237
-0.00216119
0.00339059
-0.00283948
-0.00139557
-0.00208144
0.00076802
-0.00215662
0.000494504
6.78761e-06
-1.50001e-05
0.000417594
0.000591435
0.000206646
0.000584007
1.31918e-06
0.000402764
-0.000136578
0.00019714
-0.000198104
1.28199e-05
-0.000159381
4.70469e-06
-0.000120323
0.00278377
0.00405238
-0.00543366
0.00115506
0.00358697
-4.23166e-06
0.00274293
-0.000798751
0.00154798
-0.00120008
0.00210759
-0.00177685
0.00238142
-0.00256111
-0.000999425
-0.00138875
0.00025466
-0.000212254
0.000452098
0.000423943
4.50508e-07
0.000354454
0.000443644
0.000171596
0.000413722
1.05142e-06
0.000265208
-0.000111439
0.000110275
-0.000157451