/*--------------------------------*- C++ -*----------------------------------*\
  =========                 |
  \\      /  F ield         | OpenFOAM: The Open Source CFD Toolbox
   \\    /   O peration     | Website:  https://openfoam.org
    \\  /    A nd           | Version:  8
     \\/     M anipulation  |
\*---------------------------------------------------------------------------*/
FoamFile
{
    version     2.0;
    format      ascii;
    class       volVectorField;
    location    "20000";
    object      U;
}
// * * * * * * * * * * * * * * * * * * * * * * * * * * * * * * * * * * * * * //

dimensions      [0 1 -1 0 0 0 0];

internalField   nonuniform List<vector> 
4109
(
(10.1197 0.000522716 0)
(10.1223 0.00055259 3.86633e-21)
(10.124 0.00250456 0)
(10.1218 -0.000216765 -8.3308e-21)
(10.1241 0.00150622 4.00715e-22)
(10.1269 0.00237175 6.67279e-23)
(10.1278 0.00251376 -2.46061e-22)
(10.1334 0.00401678 0)
(10.1288 0.0023903 0)
(10.123 0.00038781 -2.8659e-21)
(10.125 0.00129232 3.48413e-21)
(10.1338 0.00314515 1.53498e-21)
(10.1363 0.00797807 2.24788e-21)
(10.1368 0.00429674 -1.09032e-22)
(10.1346 0.00331298 2.37358e-21)
(10.13 0.00222348 -8.93495e-22)
(10.1243 0.000617806 5.50939e-22)
(10.1267 0.00160396 6.44653e-23)
(10.1356 0.00323636 0)
(10.1404 0.00369837 -3.23164e-21)
(10.159 0.00816461 1.84881e-21)
(10.1427 0.00842484 -5.07556e-21)
(10.1466 0.00601286 -5.72917e-22)
(10.1312 0.0022932 -2.23692e-21)
(10.1285 0.00175634 9.11787e-21)
(10.1256 0.000843595 3.08485e-21)
(10.1329 -0.00211934 0)
(10.1362 -0.00228149 9.07213e-22)
(10.1404 -0.00217135 -6.58261e-23)
(10.136 0.0032601 0)
(10.1419 0.00323782 0)
(10.1465 0.00464741 3.91963e-21)
(10.2209 -2.16798e-05 -1.0153e-21)
(10.1507 0.00705225 -7.10662e-21)
(10.1489 0.0060213 0)
(10.132 0.00233958 -1.60416e-22)
(10.1279 0.00153834 -9.05774e-21)
(10.1266 0.000754446 -5.02451e-21)
(10.1328 -0.00216754 -1.45048e-21)
(10.1249 -0.00161547 0)
(10.1421 -0.00303756 -1.37678e-22)
(10.1392 -0.00333359 4.96664e-22)
(10.1418 -0.00893152 -1.48036e-22)
(10.1365 0.00334365 -2.26501e-21)
(10.1421 0.00323777 0)
(9.48072 0.02609 7.08135e-22)
(10.135 -0.000371521 3.81057e-22)
(10.1489 0.00466781 -1.40859e-22)
(10.1496 0.0040327 6.76621e-22)
(10.2167 -0.00105449 4.62951e-21)
(10.1535 0.00534046 4.26085e-21)
(10.1308 0.00203029 -1.32238e-22)
(10.1291 0.00184984 -8.79288e-21)
(10.1281 0.0010259 1.97803e-21)
(10.1329 -0.00250133 -9.47754e-22)
(10.1266 -0.00186339 0)
(10.119 -0.000356048 0)
(10.1416 -0.00527517 1.16885e-22)
(10.143 -0.00417266 1.57946e-22)
(10.1389 -0.00347581 0)
(10.2401 -0.00276657 -1.44653e-22)
(8.88599 0.0142782 0)
(10.1362 0.00330496 -7.73326e-21)
(10.1427 0.0032401 0)
(10.1487 0.00439775 6.05561e-22)
(10.2461 -0.00086243 -3.86806e-22)
(9.74634 0.0280901 1.58276e-20)
(10.15 0.00375543 0)
(10.1508 0.00631893 -9.57336e-22)
(10.2301 -0.000417236 -5.83949e-22)
(10.1298 0.00127572 2.64803e-21)
(10.1309 0.00226669 5.86697e-21)
(10.1355 0.00387935 0)
(10.1318 0.00141119 1.19561e-20)
(10.1331 0.00226682 -1.78443e-20)
(10.1339 -0.00284563 9.55881e-22)
(10.1284 -0.00195313 0)
(10.1266 -0.00176274 0)
(10.1205 -0.000465249 0)
(10.2207 0.00675879 1.69736e-22)
(10.1468 -0.00464624 8.12304e-22)
(10.1416 -0.00486223 -7.4184e-22)
(10.1451 -0.00360835 8.87385e-23)
(10.1395 -0.00389651 0)
(10.3543 0.0186102 1.20933e-21)
(10.258 3.36238e-06 0)
(9.37364 -0.0429392 0)
(9.21595 0.0310557 -3.08723e-20)
(8.84227 0.0202382 -1.05317e-21)
(10.1348 0.00273337 3.02108e-21)
(10.1371 0.00329116 7.7364e-21)
(10.1432 0.00333689 0)
(10.1492 0.00449681 -3.17566e-22)
(10.1506 0.0035104 -1.97849e-22)
(10.2875 -0.00495922 0)
(9.99269 0.0122725 0)
(10.1483 0.00594475 0)
(10.2206 0.000547149 3.09528e-22)
(10.1371 0.00394404 6.29403e-22)
(10.1342 0.00322064 -1.17899e-20)
(10.1318 0.00248848 1.34267e-20)
(10.1365 0.0038411 8.46985e-21)
(10.1383 0.00452191 5.39554e-21)
(10.1346 0.00274029 6.28205e-21)
(10.1341 0.00122863 2.45319e-21)
(10.1347 -0.00332987 3.99712e-22)
(10.1305 -0.00263531 3.53708e-22)
(10.1263 -0.00154136 0)
(10.1212 -0.00062178 2.85576e-21)
(10.2091 0.00182142 1.57349e-22)
(10.3295 0.00916113 0)
(10.1451 -0.00537168 -3.22577e-22)
(10.1455 -0.00428736 -3.18954e-23)
(10.1454 -0.00403123 0)
(10.1399 -0.00420778 0)
(9.01875 -0.0380264 -1.43718e-20)
(10.1706 -0.0132147 -1.07915e-21)
(9.90986 -0.0362112 1.72624e-20)
(9.5675 0.0395094 -7.21492e-21)
(9.04842 0.0114376 1.10082e-20)
(8.75677 -0.00320207 8.62494e-21)
(10.2989 0.00205836 1.37773e-22)
(10.1362 0.00330892 -1.38068e-20)
(10.1394 0.00391019 -2.38872e-21)
(10.1441 0.00368213 -7.63739e-22)
(10.1495 0.00479087 0)
(10.1514 0.00386925 6.31123e-22)
(10.1472 0.00611224 -2.01408e-21)
(10.0767 0.00439771 3.38719e-21)
(10.3091 -0.00162296 0)
(10.2078 0.000909791 2.35505e-22)
(10.1403 0.00521608 6.98277e-21)
(10.1373 0.0040591 -4.3858e-21)
(10.1387 0.00472629 -8.28439e-21)
(10.1409 0.00582653 5.13134e-22)
(10.1372 0.00155835 0)
(10.1375 0.00379621 -4.9808e-21)
(10.1355 -0.00386359 -7.8178e-22)
(10.1307 -0.00281485 0)
(10.1268 -0.00171295 1.07648e-21)
(10.1225 -0.000758017 -2.85543e-21)
(10.2107 -0.00126686 -2.45841e-23)
(10.3261 -0.00306394 0)
(10.143 -0.00663468 0)
(10.1466 -0.0044399 -3.04379e-22)
(10.1457 -0.00420845 1.51997e-22)
(10.1404 -0.00469747 0)
(9.13903 -0.0346388 -8.2339e-21)
(9.85908 -0.0391257 5.30468e-22)
(9.08636 0.00957727 0)
(9.64724 0.0186159 -3.79704e-21)
(8.7604 0.0225225 0)
(10.2683 -0.00130518 -1.28641e-22)
(10.1399 0.00437852 1.10074e-20)
(10.1395 0.00391203 2.38854e-21)
(10.145 0.00417911 7.2616e-22)
(10.1502 0.00561989 2.3507e-21)
(10.1514 0.00440428 1.10434e-21)
(10.1467 0.00696232 1.23342e-21)
(10.2021 0.00307896 -3.89425e-23)
(10.1213 0.00211377 -3.43482e-24)
(10.3213 -0.00265816 -2.3533e-22)
(10.1441 0.00619279 1.96049e-21)
(10.1401 0.00451735 0)
(10.1416 0.00626809 -3.18591e-22)
(10.1449 0.00725701 -1.69161e-21)
(10.1426 0.00639853 -2.10558e-22)
(10.141 0.00538495 0)
(10.1408 0.00177887 0)
(10.1365 -0.00457248 2.99749e-22)
(10.132 -0.00341548 1.16597e-22)
(10.1281 -0.0020873 -2.32315e-21)
(10.1232 -0.000647445 -4.80897e-22)
(10.2068 -0.00458591 -2.07682e-23)
(10.3266 -0.00414147 0)
(10.1409 -0.00767832 6.2353e-22)
(10.1484 -0.00455667 -1.49081e-22)
(10.1457 -0.00489206 -6.04633e-22)
(10.1414 -0.00561418 -3.68964e-22)
(9.77439 -0.0296485 -5.53689e-22)
(8.88282 -0.0128509 0)
(9.70548 0.0164599 3.91569e-24)
(9.09609 0.00600177 4.71472e-22)
(8.7618 0.0207011 1.07023e-22)
(10.286 0.00324534 1.78244e-22)
(10.1456 0.00443494 -2.5299e-23)
(10.1462 0.00485374 2.52906e-23)
(10.1519 0.00621351 -1.21938e-21)
(10.1479 0.00757817 -1.98653e-21)
(10.1549 0.00409798 -8.79645e-22)
(10.1906 0.00623123 1.05909e-21)
(10.1074 0.00497637 -2.26927e-22)
(10.3172 0.000768077 1.36372e-22)
(10.1469 0.00535504 -9.45374e-22)
(10.1476 0.00636102 4.95435e-22)
(10.146 0.0082889 -4.96265e-22)
(10.1487 0.00754617 -6.81231e-22)
(10.1477 0.00931939 4.92299e-22)
(10.146 0.00770155 2.46538e-22)
(10.1421 0.0050143 1.86143e-21)
(10.1449 0.00084136 0)
(10.1378 -0.00529411 -6.38802e-22)
(10.1332 -0.00388258 3.09607e-22)
(10.1295 -0.0025107 1.99221e-21)
(10.1248 -0.000892568 3.76487e-22)
(10.1929 -0.00629106 -3.4997e-22)
(10.3171 -0.00338681 -5.89625e-22)
(10.1398 -0.0078664 3.99937e-22)
(10.1495 -0.00534196 2.65042e-23)
(10.1463 -0.00650165 8.82831e-22)
(10.1428 -0.00686689 0)
(9.76131 -0.019169 -1.31365e-21)
(8.86915 -0.00639223 6.34956e-22)
(9.0755 -0.00157271 0)
(9.68092 0.0117742 5.64915e-23)
(8.75445 0.0197015 -7.38492e-22)
(10.313 0.0116544 1.98284e-22)
(10.1528 0.0053198 0)
(10.1531 0.00566218 -9.28118e-22)
(10.1565 0.00419813 -3.03712e-21)
(10.1737 0.0130425 2.20904e-21)
(10.1067 0.00387639 1.34635e-24)
(10.3164 0.00248401 -4.72276e-22)
(10.1533 0.00703949 1.10886e-21)
(10.1536 0.00847262 2.06791e-21)
(10.1501 0.00887667 2.03846e-21)
(10.1543 0.0101955 -1.41249e-21)
(10.1519 0.0101462 -1.03768e-21)
(10.1498 0.0104189 0)
(10.1473 0.00743668 -2.09478e-21)
(10.146 0.00574333 -2.1388e-21)
(10.1493 0.000841585 0)
(10.1392 -0.00591981 -2.92884e-21)
(10.1346 -0.00422843 7.66939e-21)
(10.1312 -0.002878 3.40683e-21)
(10.1263 -0.000971539 -6.42411e-22)
(10.1769 -0.00777121 -2.66367e-22)
(10.3019 -0.00405726 1.57473e-22)
(10.1509 -0.00736825 -7.07774e-22)
(10.1405 -0.00801006 9.94732e-22)
(10.1407 -0.00630694 0)
(10.1483 -0.00888586 0)
(10.1446 -0.00788366 0)
(9.82312 -0.0166471 2.90296e-22)
(8.87943 -0.00898736 4.84324e-22)
(9.68282 0.00518934 5.2876e-23)
(9.07973 -0.00895853 6.59792e-23)
(8.76071 0.0212314 -6.46407e-23)
(10.3286 0.0174052 -4.88615e-22)
(10.1584 0.00307159 0)
(10.1566 0.00472605 4.89489e-22)
(10.1652 0.0164947 7.42178e-22)
(10.1062 0.00380847 -1.11407e-21)
(10.3181 0.00804525 5.77741e-22)
(10.1571 0.00684465 -3.36155e-22)
(10.1584 0.00752593 -2.72111e-22)
(10.1553 0.0119662 -3.93915e-22)
(10.1597 0.0100895 0)
(10.1567 0.0139837 0)
(10.1542 0.0113776 -3.2005e-22)
(10.1523 0.0113583 2.70721e-21)
(10.1505 0.00816212 -1.1181e-20)
(10.1503 0.00585916 0)
(10.1538 0.000960383 0)
(10.1372 -0.00502799 4.13006e-21)
(10.1344 -0.00404953 -5.60552e-21)
(10.1283 -0.00110941 2.38769e-21)
(10.1395 -0.00566484 4.13277e-21)
(10.1526 -0.0104394 1.86531e-21)
(10.279 -0.00504179 -3.29844e-21)
(10.1513 -0.00929537 -9.96627e-23)
(10.1429 -0.00689386 0)
(10.1464 -0.00853855 0)
(10.1508 -0.0100379 -5.79387e-22)
(8.8851 -0.00588962 2.94119e-22)
(9.86048 -0.0142493 5.13799e-22)
(9.08962 -0.0249301 8.08587e-22)
(9.68726 -0.00847181 -7.79953e-22)
(8.76628 0.0185046 0)
(10.3381 0.0272504 1.049e-21)
(10.0158 -0.017474 1.28537e-19)
(10.1675 0.0158506 0)
(10.1636 0.00995834 -2.33344e-22)
(10.1129 0.00559632 -1.4982e-20)
(10.3296 0.00657131 -4.25957e-21)
(10.1529 0.0129963 1.46685e-21)
(10.1558 0.0114485 -4.54165e-22)
(10.1611 0.0120414 2.86288e-21)
(10.154 0.016665 4.50226e-22)
(10.1632 0.0144978 -8.25591e-23)
(10.1585 0.0158273 -1.11058e-22)
(10.1568 0.0125629 0)
(10.1552 0.0122721 -6.05811e-21)
(10.1543 0.00894626 2.26069e-20)
(10.1549 0.00632992 0)
(10.1556 0.00431461 6.99893e-21)
(10.1571 -0.000646554 0)
(10.129 -0.00061291 0)
(10.1351 -0.00351612 2.41838e-21)
(10.132 -0.00246541 -3.68285e-21)
(10.1405 -0.00555196 2.07506e-22)
(10.1444 -0.00710532 1.60849e-21)
(10.1387 -0.0145182 0)
(10.2596 -0.00887687 1.42651e-21)
(10.1558 -0.0112563 1.26126e-21)
(10.148 -0.0090101 6.05452e-22)
(10.1532 -0.0103948 0)
(9.88879 -0.00619919 1.21789e-21)
(8.8676 -0.000141887 -6.96602e-22)
(9.10582 -0.0298167 4.08575e-20)
(9.74103 -0.0150077 -2.82157e-20)
(8.78121 0.0160063 3.20689e-20)
(10.3336 0.0299781 -1.04326e-21)
(10.0116 -0.00270882 -2.12865e-19)
(10.0142 -0.0198727 5.55626e-20)
(10.0108 -0.0138409 -6.24686e-20)
(10.022 -0.0211793 -8.2762e-20)
(10.0172 -0.00651312 1.8873e-19)
(10.028 -0.0266657 7.33522e-20)
(9.97291 0.0171397 2.77612e-20)
(10.3405 -0.0152742 1.95169e-20)
(10.2798 -0.0294895 -1.84689e-20)
(10.1917 -0.000132289 -1.49583e-21)
(10.2033 0.00179313 -5.97253e-21)
(10.1579 0.0114163 -2.86881e-22)
(10.1574 0.0177855 0)
(10.1617 0.0209162 -1.67195e-21)
(10.1652 0.0160231 0)
(10.161 0.0176586 0)
(10.1612 0.00788482 4.36615e-20)
(10.1599 0.0137821 1.10258e-21)
(10.1587 0.0130587 1.88838e-20)
(10.1589 0.00966239 -1.90258e-20)
(10.1589 0.00369284 -6.77167e-21)
(10.1583 -0.00140969 0)
(10.1603 0.000790265 0)
(10.1565 -0.00255306 1.26096e-20)
(10.1319 -0.00168136 -5.39629e-22)
(10.1355 -0.00320566 -7.57607e-21)
(10.1426 -0.00594669 -4.84157e-21)
(10.1462 -0.00744999 -5.20858e-21)
(10.1497 -0.0093514 -7.58249e-22)
(10.139 -0.0198002 0)
(10.2597 -0.0109613 -2.95125e-21)
(10.1589 -0.0122233 -1.13342e-21)
(10.1552 -0.0102454 -1.65752e-23)
(9.89173 0.000597009 7.65481e-21)
(8.76562 0.00648156 5.7456e-22)
(8.97732 0.0202298 2.60198e-20)
(10.3268 0.0113338 9.37766e-22)
(10.0008 -0.00197573 -5.61698e-20)
(10.0042 -0.00162367 5.61963e-20)
(10.007 -0.0090334 0)
(10.0193 -0.0246153 -2.27449e-20)
(10.0112 -0.0246205 8.55625e-20)
(10.0069 -0.0176148 7.22562e-20)
(10.1498 -0.00528814 0)
(10.1551 -0.0109783 7.04288e-21)
(10.1567 -0.0250614 5.64188e-21)
(10.0258 -0.00782296 -2.87992e-21)
(10.0314 -0.0193405 -1.90867e-20)
(10.0242 -0.0120497 4.80228e-20)
(10.0341 -0.0269417 -6.53463e-21)
(10.0258 -0.0304441 2.77495e-20)
(9.51766 0.0553148 -6.07589e-20)
(10.3523 -0.0333568 -4.44072e-21)
(10.3281 0.00757266 2.71172e-20)
(10.273 -0.00107725 -9.87121e-21)
(10.1691 0.0133996 -1.68204e-22)
(10.1652 0.00724935 1.72812e-21)
(10.1565 0.0225197 -1.311e-20)
(10.1693 0.020961 0)
(10.1676 0.0183091 0)
(10.164 0.0197431 -1.08906e-21)
(10.1639 0.0102044 0)
(10.1635 0.0150019 0)
(10.1629 0.0135795 -6.45256e-21)
(10.1657 0.00203019 0)
(10.1645 0.00461506 -3.1643e-20)
(10.1607 -0.00498484 -7.61751e-20)
(10.1647 -0.00157978 5.15203e-20)
(10.1657 -0.016527 0)
(10.1735 -0.0339535 1.59002e-20)
(10.1346 -0.00158074 8.01525e-21)
(10.1383 -0.00392969 -4.11956e-22)
(10.1454 -0.0066459 -2.01309e-20)
(10.148 -0.00788227 1.13694e-20)
(10.1514 -0.00973636 2.14312e-22)
(10.1569 -0.010441 -1.64068e-22)
(10.1442 -0.0206526 8.48927e-22)
(10.2491 -0.0144595 1.06577e-21)
(10.161 -0.0117175 -4.7597e-22)
(9.93292 -0.0197097 -1.17689e-20)
(8.57839 0.00817575 1.81986e-20)
(10.0004 -0.00286477 -1.16406e-19)
(10.003 -0.0095045 4.95161e-20)
(10.0163 -0.0308072 -2.80891e-20)
(10.0092 -0.0286038 1.95096e-21)
(10.0052 -0.0203266 -1.37937e-19)
(10.1443 -0.0173743 -1.26978e-20)
(10.1378 -0.00784069 1.08001e-20)
(10.1448 -0.0341504 0)
(10.1839 -0.0562416 -3.01316e-20)
(10.1624 -0.0451706 -1.65798e-20)
(10.0401 -0.0164019 1.6866e-22)
(10.0392 -0.010979 -2.70468e-20)
(10.0414 -0.0308606 -1.92431e-22)
(10.0335 -0.0353823 -6.31534e-21)
(10.0237 -0.03767 -2.91925e-20)
(8.65196 0.0442614 -4.47879e-20)
(9.83372 0.103505 1.29621e-20)
(10.364 0.0415964 -1.30754e-20)
(10.3117 0.022662 1.09487e-21)
(10.1779 0.0168054 4.6634e-21)
(10.1679 0.0100121 2.81162e-21)
(10.1714 0.00907251 9.26549e-21)
(10.1591 0.022584 -2.51996e-21)
(10.1699 0.023159 2.77611e-21)
(10.1702 0.0206157 0)
(10.1676 0.0223379 -8.98989e-21)
(10.1674 0.0134651 -1.03629e-20)
(10.1678 0.0161236 0)
(10.1736 0.00194792 -2.23544e-20)
(10.1721 0.00573259 -1.11683e-20)
(10.1733 -0.00329352 4.92385e-20)
(10.1709 -0.00945511 -1.83668e-20)
(10.1811 -0.0231482 -1.12848e-20)
(10.1951 -0.0411617 4.74148e-20)
(10.1378 -0.00203338 -4.83861e-21)
(10.1416 -0.00474624 8.98181e-21)
(10.1632 -0.0128239 2.24206e-21)
(10.1506 -0.00863569 6.63547e-21)
(10.1495 -0.00850163 0)
(10.153 -0.0102973 1.79294e-21)
(10.1584 -0.010704 9.99455e-23)
(10.1539 -0.0103291 0)
(10.1536 -0.0178186 -1.84151e-21)
(10.1495 -0.0180186 -1.56306e-21)
(10.2878 -0.00593367 1.3612e-21)
(10.0372 -0.0552287 3.2333e-20)
(10.0008 0.00226674 -1.46979e-20)
(10.0003 -0.00386022 0)
(10.0021 -0.0120302 3.14749e-20)
(10.0142 -0.0363878 -7.01301e-21)
(10.0068 -0.0331532 0)
(10.0036 -0.0233583 1.04858e-20)
(10.2207 -0.0691136 -5.37991e-20)
(10.1206 -0.0105269 -7.08556e-23)
(10.1008 -0.0129385 0)
(10.1302 -0.0240937 -5.0441e-21)
(10.1345 -0.0432647 -1.21456e-21)
(10.0575 -0.0100883 0)
(10.0784 -0.00945996 0)
(10.1675 -0.0701448 1.45893e-20)
(10.148 -0.055218 -1.4451e-22)
(10.051 -0.0260741 1.04392e-19)
(10.0432 -0.0388963 4.9893e-20)
(10.0332 -0.0448617 1.27464e-20)
(10.0211 -0.0446402 0)
(8.45734 -0.00198681 3.57187e-20)
(9.41739 0.108925 0)
(10.2835 0.0579721 1.03703e-21)
(10.3183 0.0251726 -1.20727e-21)
(10.1958 0.0180919 6.24091e-21)
(10.1722 0.0124919 1.19632e-20)
(10.1769 0.0102269 0)
(10.1604 0.0240906 3.83808e-21)
(10.1718 0.025418 -8.11216e-22)
(10.1732 0.0234589 -3.50407e-21)
(10.1721 0.0251159 -1.67762e-21)
(10.1729 0.0168244 2.0207e-22)
(10.1838 0.0015366 -1.29306e-20)
(10.1806 0.00643639 1.45039e-20)
(10.1855 -0.00515569 1.34334e-20)
(10.1849 -0.0134556 -1.21896e-20)
(10.201 -0.0269594 -4.74739e-20)
(10.228 -0.0455904 3.37757e-24)
(10.1416 -0.00257154 -2.68799e-21)
(10.151 -0.00716528 -2.96365e-20)
(10.1463 -0.00598191 1.86017e-20)
(10.1726 -0.0182942 -2.11419e-21)
(10.1648 -0.0129027 -6.41121e-22)
(10.1547 -0.01108 -1.70101e-21)
(10.1566 -0.0118219 0)
(10.1598 -0.0112333 1.31062e-21)
(10.1569 -0.0120133 8.5431e-21)
(10.1589 -0.0128458 0)
(9.6649 -0.0878128 -8.22471e-20)
(9.38433 -0.090595 1.47457e-20)
(10.1402 -0.00816832 0)
(10.3265 0.00276415 5.39988e-21)
(10.0004 0.00279667 1.43862e-19)
(10.0022 0.00844734 -1.36762e-19)
(10.0046 0.00104041 0)
(10.0003 -0.00456914 -1.95932e-20)
(10.0014 -0.0137755 7.19012e-20)
(10.0115 -0.0425231 5.93425e-21)
(10.0037 -0.0352036 0)
(10.0013 -0.0245217 -1.65581e-19)
(10.2051 -0.0913322 5.37734e-20)
(10.2663 -0.0674152 2.26321e-20)
(10.1189 -0.0326662 -3.40975e-21)
(10.1015 -0.0267187 0)
(10.1186 -0.0514684 4.85545e-21)
(10.0819 -0.0232818 0)
(10.065 -0.0273033 -8.72434e-20)
(10.1471 -0.0803742 1.53685e-20)
(10.1315 -0.0602344 3.86254e-21)
(10.0554 -0.040227 -2.00913e-20)
(10.0446 -0.051854 -1.17276e-20)
(10.0301 -0.0533048 4.0449e-20)
(10.0165 -0.0520202 -3.83496e-20)
(8.16084 -0.0231885 5.07125e-21)
(9.11396 0.0769001 3.32742e-21)
(9.05086 -0.0677801 6.79903e-21)
(10.2356 0.0382481 -2.31537e-21)
(10.3408 0.0272786 2.11369e-21)
(10.2081 0.0225459 -2.37906e-21)
(10.1786 0.0164844 0)
(10.1847 0.0145598 -1.93592e-20)
(10.1621 0.0273237 -4.53392e-21)
(10.1735 0.0282442 7.57169e-21)
(10.1779 0.0266295 1.49461e-21)
(10.1772 0.0273332 1.10416e-20)
(10.1908 0.010603 1.93528e-20)
(10.1962 0.00464227 0)
(10.2005 -0.0037088 0)
(10.2024 -0.0143296 0)
(10.2291 -0.0241507 0)
(10.2668 -0.0398406 -4.67396e-20)
(10.3058 -0.0634179 -7.31263e-20)
(10.1458 -0.00304157 2.68786e-21)
(10.1519 -0.00551181 8.28446e-21)
(10.1666 -0.0137468 2.31797e-21)
(10.1658 -0.0139328 1.76248e-22)
(10.1612 -0.0122636 -1.57434e-21)
(10.1627 -0.0135135 -1.83483e-21)
(10.165 -0.014897 0)
(10.1587 -0.0117067 0)
(10.1617 -0.0137899 0)
(10.1705 -0.00446573 0)
(10.3663 -0.0137491 3.98663e-20)
(10.2982 -0.0295094 -3.01767e-20)
(10.0006 0.00484517 3.58969e-20)
(10.0023 0.0108661 -2.80005e-20)
(10.0049 0.0140267 -6.96675e-20)
(10.0137 0.00793519 0)
(10.0073 0.0109467 0)
(9.99992 -0.00489817 5.48283e-21)
(10.0009 -0.0153969 4.30634e-20)
(10.0078 -0.04595 -1.27236e-21)
(10.0001 -0.0396204 -2.9659e-20)
(9.9994 -0.0301194 2.683e-19)
(10.1824 -0.107198 1.46105e-22)
(10.2518 -0.095468 4.55532e-20)
(10.3319 -0.104494 -7.17766e-20)
(10.0714 -0.0447523 -6.54472e-20)
(10.1023 -0.0508451 2.07697e-20)
(10.0892 -0.0406297 2.99531e-20)
(10.125 -0.0862513 0)
(10.1146 -0.0631385 -1.9861e-21)
(10.0586 -0.0588244 -1.61882e-20)
(10.0413 -0.0623413 -4.45056e-20)
(10.023 -0.0623652 2.25342e-20)
(10.0111 -0.0568611 -1.42387e-20)
(10.3285 -0.0677791 0)
(8.03802 -0.014485 -4.76783e-21)
(8.96722 0.0593666 2.26385e-21)
(8.85645 -0.0372873 -5.17412e-21)
(10.2084 0.030428 7.19042e-22)
(10.3521 0.0290958 -7.02512e-22)
(10.2155 0.0307953 0)
(10.1841 0.0284769 0)
(10.1921 0.027777 1.9877e-20)
(10.1773 0.0321445 0)
(10.1638 0.0352927 -7.59134e-23)
(10.1836 0.0299129 -1.45104e-21)
(10.2009 0.0245182 -1.98654e-20)
(10.21 0.0182432 0)
(10.2187 0.0081594 0)
(10.2256 -0.00593056 0)
(10.2611 -0.0151202 0)
(10.2944 -0.0339242 3.65594e-20)
(10.3373 -0.0485354 2.13588e-19)
(10.3657 -0.0675906 1.71745e-20)
(10.1492 -0.00212389 0)
(10.1556 -0.00580674 -8.3864e-21)
(10.1675 -0.0131683 0)
(10.1667 -0.0146733 5.91523e-21)
(10.1676 -0.0170001 -1.54811e-20)
(10.1681 -0.0192178 4.73078e-21)
(10.1679 -0.0166605 -1.61786e-20)
(10.1626 -0.0123106 2.60834e-21)
(10.1643 -0.0135401 0)
(10.167 -0.0177074 2.38861e-20)
(10.1792 -0.0113254 0)
(10.2687 0.0176699 1.65119e-20)
(10.0006 0.00603102 -6.63398e-20)
(10.024 0.00792147 2.01466e-20)
(10.0034 0.0164449 0)
(10.0063 0.0204316 -1.2002e-21)
(10.0114 0.0147301 5.67434e-20)
(9.99982 -0.00454658 0)
(9.99905 -0.0147252 -4.79306e-20)
(10.0024 -0.0501743 3.29774e-20)
(9.99526 -0.0388508 0)
(9.99592 -0.0297271 0)
(9.99821 -0.021142 -1.81872e-21)
(10.1556 -0.117115 -2.44541e-21)
(10.3758 -0.143288 1.00423e-19)
(10.2208 -0.121583 -2.29068e-21)
(10.2941 -0.132216 -7.35945e-20)
(10.105 -0.0877154 5.44081e-20)
(10.0758 -0.0604836 0)
(10.0949 -0.0660408 -2.45668e-20)
(10.0558 -0.0714825 0)
(10.0311 -0.0740538 4.99332e-21)
(10.0152 -0.0694374 4.3035e-20)
(10.0038 -0.0620351 -1.717e-20)
(10.2778 -0.0441454 0)
(7.97172 -0.0143019 2.83089e-21)
(8.87344 0.0583289 -3.67998e-21)
(8.77244 -0.0338203 -7.70955e-22)
(10.1706 0.0247916 9.30207e-22)
(10.3546 0.0321538 1.28273e-21)
(10.2175 0.045514 6.02329e-22)
(10.2025 0.0342653 2.16549e-20)
(10.192 0.0326879 -1.05218e-20)
(10.1839 0.0375329 1.26246e-21)
(10.1675 0.0486915 -1.35782e-21)
(10.2142 0.0323745 -2.86076e-20)
(10.2268 0.0271803 1.69898e-20)
(10.2517 0.00461106 0)
(10.2397 0.0185541 0)
(10.2846 -0.00717737 -1.30669e-20)
(10.3523 -0.00679607 7.7735e-20)
(10.3228 -0.0104948 0)
(10.3868 -0.0273184 -2.16473e-19)
(10.4095 -0.0981634 -1.38821e-19)
(10.1534 -0.0019909 4.6008e-21)
(10.1592 -0.00539004 -2.49123e-21)
(10.1663 -0.0119277 1.79741e-20)
(10.1677 -0.0190113 4.1126e-21)
(10.1709 -0.0178409 1.34424e-20)
(10.1709 -0.0223745 -1.95316e-21)
(10.1721 -0.0176944 3.80152e-22)
(10.1683 -0.014342 -2.20956e-21)
(10.1694 -0.0195186 8.67958e-21)
(10.1625 -0.025027 0)
(10.2431 -0.0113434 -2.68412e-22)
(10.0002 0.00576224 -4.06153e-20)
(10.0016 0.0153457 8.27247e-20)
(10.0388 0.00743753 -2.92269e-20)
(10.0282 0.0195711 -5.32121e-20)
(10.0054 0.0232373 3.2634e-20)
(10.0107 0.0237521 -2.44803e-20)
(10.0205 0.0216371 5.20162e-20)
(9.99812 -0.0115133 0)
(9.99964 -0.00369937 0)
(9.99562 -0.0495742 -1.67796e-20)
(9.99021 -0.0373572 -5.57342e-20)
(9.99263 -0.0285317 1.70765e-20)
(9.99556 -0.0198251 1.86056e-21)
(10.1294 -0.120859 -1.73384e-20)
(10.4297 -0.19463 -1.73005e-19)
(10.1871 -0.141318 -4.56125e-21)
(10.3358 -0.183465 2.63736e-20)
(10.2546 -0.170511 2.99612e-20)
(10.0896 -0.0917672 -4.40337e-20)
(10.0717 -0.0773536 -1.30851e-20)
(10.106 -0.120136 2.44044e-20)
(10.0438 -0.0869619 -7.2592e-20)
(10.0215 -0.0847302 0)
(10.0054 -0.0762231 -1.34109e-20)
(9.99426 -0.0625078 -3.59075e-21)
(10.3034 -0.0456753 5.3257e-22)
(7.93232 -0.0224552 0)
(8.78228 0.0615766 1.11804e-21)
(8.69508 -0.029958 0)
(10.1348 0.0194165 -1.33497e-21)
(10.3541 0.0365262 -5.95595e-22)
(10.2088 0.0612136 9.44057e-23)
(10.2077 0.0498962 0)
(10.1941 0.0439212 8.91674e-22)
(10.1761 0.0610223 1.57182e-20)
(10.2255 0.0439698 0)
(10.2399 0.0380368 3.36361e-20)
(10.2713 0.0133258 -4.37411e-21)
(10.256 0.0289904 -3.87121e-20)
(10.3098 0.00233317 -2.53126e-21)
(10.3587 0.0308345 9.62266e-20)
(10.3963 0.00753386 -4.42883e-20)
(10.4345 -0.0478548 1.6161e-19)
(10.4675 -0.138478 3.97375e-20)
(10.157 -0.00187197 0)
(10.1639 -0.00511375 0)
(10.1708 -0.0110167 -2.44075e-20)
(10.1724 -0.014709 6.50891e-22)
(10.1684 -0.0231026 -9.49356e-21)
(10.1722 -0.0205364 0)
(10.1739 -0.0264306 -2.42194e-21)
(10.1746 -0.0191438 -3.83629e-21)
(10.1736 -0.0203765 3.5301e-21)
(10.1691 -0.0270717 4.36106e-21)
(10.2608 -0.0136435 1.21509e-22)
(10.0001 0.00434476 3.33599e-20)
(10.0004 0.013124 8.36187e-20)
(10.0018 0.0206613 -1.22279e-19)
(10.0037 0.0245428 -4.43358e-20)
(10.057 0.00733524 0)
(10.0413 0.0194754 3.40839e-20)
(10.0334 0.0301797 -4.11006e-20)
(10.0089 0.0290945 -1.42934e-20)
(10.0168 0.0302365 0)
(10.0272 0.0310922 -8.74823e-20)
(10.0774 0.00695095 -4.22827e-21)
(9.99704 -0.00801459 5.01372e-20)
(9.99954 -0.00228601 0)
(9.99985 0.00370546 0)
(9.98793 -0.0473094 -2.07405e-20)
(9.98541 -0.0315792 4.39406e-20)
(9.99237 -0.0154107 -5.40334e-20)
(9.98822 -0.0235032 0)
(10.1493 -0.155353 -3.36895e-22)
(10.3836 -0.243825 1.49853e-20)
(10.2114 -0.194269 5.89648e-21)
(10.2897 -0.220206 3.09686e-22)
(10.0817 -0.115732 3.31813e-20)
(10.0606 -0.0989238 5.9941e-20)
(10.1122 -0.160297 0)
(9.98325 -0.060228 4.40575e-20)
(10.0332 -0.103694 -7.78843e-22)
(10.0094 -0.0952311 0)
(9.99233 -0.0781732 -1.65778e-20)
(10.2869 -0.0421408 -7.68594e-23)
(7.90018 -0.0266403 4.54588e-22)
(8.69859 0.0680742 -6.96966e-22)
(8.64889 -0.0269 -1.23435e-21)
(10.2081 0.0708775 0)
(10.1219 0.00704788 1.13248e-22)
(10.3478 0.0396402 -1.18309e-22)
(10.2062 0.0673083 -2.32828e-20)
(10.1901 0.0704491 3.65635e-21)
(10.2487 0.0628192 -7.64429e-21)
(10.2332 0.0613154 2.84116e-20)
(10.2906 0.0373697 -5.48609e-20)
(10.3239 0.046029 -1.00531e-19)
(10.2711 0.0408277 7.16411e-20)
(10.3827 0.0484286 0)
(10.4462 0.00871441 9.6903e-20)
(10.496 -0.0759726 0)
(10.159 -0.00160826 4.33844e-21)
(10.1713 -0.00411222 4.47975e-20)
(10.1755 -0.00926548 0)
(10.1774 -0.0143856 -3.78276e-22)
(10.1783 -0.0210347 -1.0545e-20)
(10.1699 -0.0293785 0)
(10.1746 -0.0225962 0)
(10.1776 -0.0295604 -3.54818e-22)
(10.1794 -0.0213219 1.02191e-20)
(10.1701 -0.0342101 1.12857e-21)
(10.2637 -0.0191783 -1.08382e-21)
(10.1563 0.000496643 -5.27861e-21)
(10.1516 0.00160139 0)
(9.99937 0.0130905 1.34618e-20)
(9.99925 0.0213916 0)
(10.0029 0.0287683 4.65762e-20)
(10.0068 0.032478 1.4334e-20)
(10.0576 0.0203673 0)
(10.0441 0.0315037 5.71821e-20)
(10.0345 0.0368943 3.77486e-21)
(10.0144 0.0367232 0)
(10.0243 0.0380237 0)
(10.0758 0.0219088 -4.31996e-22)
(10.0983 0.00594226 -4.05432e-21)
(10.1177 0.00349183 0)
(10.1334 0.000155531 4.69532e-20)
(10.1467 0.00504583 -4.64781e-20)
(9.99927 0.000644131 0)
(9.99572 -0.00261063 0)
(9.99966 0.00199998 0)
(9.99823 0.0115421 0)
(9.97159 -0.0514511 -2.15785e-20)
(9.98002 -0.0395175 5.48449e-20)
(9.98185 -0.0249438 0)
(9.98895 -0.0092616 5.34773e-20)
(10.1641 -0.213959 2.08603e-20)
(10.3307 -0.287344 2.31512e-20)
(10.2387 -0.251975 -2.11076e-20)
(10.0513 -0.123406 2.83579e-21)
(10.0774 -0.139379 -6.30572e-22)
(10.0969 -0.191824 1.0485e-20)
(10.1188 -0.229939 -3.69015e-20)
(9.96074 -0.065566 0)
(9.97672 -0.0760189 -2.64627e-21)
(10.0186 -0.118594 0)
(9.99121 -0.0998266 0)
(10.3061 -0.0435392 0)
(8.6075 0.0737831 -1.71688e-22)
(7.85609 -0.0309096 -2.62019e-22)
(8.71543 -0.0394386 -1.01415e-20)
(10.3332 0.0514114 0)
(10.1662 -0.00310207 -4.25666e-21)
(10.2187 0.0957192 -3.98727e-21)
(10.2414 0.0727668 -1.40687e-20)
(10.3203 0.0856269 0)
(10.2789 0.0802235 0)
(10.3615 0.08062 -3.90044e-20)
(10.4432 0.064344 4.53807e-21)
(10.5129 -0.00720242 2.47415e-20)
(10.1693 0.000872508 -5.35375e-20)
(10.1803 -0.00707972 0)
(10.1829 -0.0128289 1.44886e-20)
(10.1842 -0.0208387 3.79304e-22)
(10.1847 -0.0230736 1.82923e-21)
(10.1726 -0.0367309 -1.16262e-21)
(10.1786 -0.0255214 1.5368e-21)
(10.1826 -0.0324528 0)
(10.2663 -0.0251145 3.02701e-22)
(10.172 -0.0416164 -7.42533e-22)
(10.1567 0.0133458 2.24302e-20)
(10.1668 0.00522836 8.75986e-21)
(10.1611 0.00984535 -2.85409e-21)
(9.99798 0.0212392 1.63998e-20)
(9.99973 0.0292919 -3.18891e-20)
(10.005 0.0372139 -1.61032e-20)
(10.0118 0.041695 1.3655e-20)
(10.0586 0.0335475 0)
(10.0451 0.0409544 2.20718e-20)
(10.0334 0.0450168 -3.57105e-21)
(10.0219 0.0456577 1.12454e-21)
(10.0746 0.0364045 -1.72036e-20)
(10.0962 0.0270773 1.46504e-20)
(10.0917 0.0378028 -7.58336e-21)
(10.1582 0.0227922 1.3648e-20)
(10.1155 0.0254654 -1.129e-23)
(10.1474 0.0238572 -1.15532e-21)
(10.1332 0.0238435 4.13448e-21)
(9.99665 0.00852623 0)
(9.99262 0.00363028 0)
(9.99564 0.0196136 6.10254e-20)
(9.98541 0.00244111 -1.07189e-19)
(9.96077 -0.041717 -5.67955e-20)
(9.97242 -0.0311256 2.54977e-20)
(9.98089 -0.0125236 1.70427e-20)
(9.94677 -0.0509336 0)
(10.1844 -0.276264 0)
(10.2717 -0.324644 1.49791e-20)
(10.0366 -0.155601 -2.35466e-20)
(10.0557 -0.210081 3.1634e-20)
(10.0613 -0.168767 3.08022e-20)
(10.0653 -0.248087 -1.582e-20)
(10.1285 -0.293562 6.25854e-21)
(9.96894 -0.096268 -4.44764e-20)
(9.94791 -0.0813504 5.29379e-20)
(9.99174 -0.129621 -3.86161e-20)
(10.3892 -0.0543838 2.69667e-21)
(8.51383 0.103515 8.9664e-21)
(7.78551 -0.0326868 -4.76185e-20)
(8.72386 -0.0980708 -5.91425e-21)
(10.3602 0.0609001 1.69484e-20)
(10.2567 0.0168284 -1.84419e-20)
(10.2521 0.108578 4.20994e-20)
(10.263 0.0819365 -2.31754e-20)
(10.3417 0.118071 1.84263e-19)
(10.4263 0.118305 3.11715e-19)
(10.5174 0.0634395 -2.3553e-19)
(10.1814 -0.0017584 0)
(10.1886 -0.00957283 -3.03818e-20)
(10.1911 -0.0190996 -1.09311e-22)
(10.1918 -0.0239149 -1.18866e-20)
(10.1893 -0.0342054 1.19146e-21)
(10.1782 -0.0446533 3.88518e-22)
(10.1845 -0.0294095 5.87368e-22)
(10.2331 -0.0325426 -2.67624e-22)
(10.1693 -0.049909 0)
(10.1671 0.0145989 0)
(10.1816 0.00471372 0)
(9.99305 0.0283341 1.01854e-19)
(9.99684 0.0297927 -1.67971e-20)
(10.001 0.0385724 4.97953e-20)
(10.0089 0.0476997 0)
(10.0193 0.0526341 -4.34769e-20)
(10.059 0.0454451 -6.45495e-21)
(10.045 0.0510225 -1.45264e-21)
(10.0316 0.0546796 1.48179e-20)
(10.0744 0.0484588 1.0976e-20)
(10.0909 0.055378 1.71206e-20)
(10.1065 0.0473647 -6.03943e-21)
(10.1683 0.0239681 5.9705e-21)
(10.1638 0.0307906 1.45121e-20)
(10.1218 0.0443005 1.21009e-21)
(10.1537 0.0350606 -2.50659e-21)
(10.1395 0.0399708 -1.32383e-20)
(9.99258 0.0164983 5.80923e-20)
(9.98735 0.0117355 7.48864e-20)
(9.9891 0.0248693 -2.20976e-19)
(9.97704 0.00086137 -1.78155e-20)
(9.93091 -0.0667402 1.64502e-20)
(9.95033 -0.0236221 -2.7735e-19)
(9.96442 -0.0122716 8.90092e-20)
(9.9341 -0.02603 0)
(9.98672 0.0317039 4.48732e-20)
(10.2074 -0.353165 -3.08779e-21)
(9.99982 -0.170995 0)
(10.0114 -0.202569 6.75941e-20)
(10.0204 -0.249353 -3.92435e-20)
(10.0698 -0.303698 0)
(10.1382 -0.371547 -4.53305e-21)
(9.94629 -0.162165 -9.44919e-20)
(9.95311 -0.129226 3.23221e-20)
(9.92724 -0.119673 -1.34335e-19)
(10.4167 -0.0955996 7.43896e-21)
(8.3233 0.223337 3.28102e-21)
(7.78369 -0.0421448 2.98577e-19)
(8.31898 -0.228047 -1.70309e-19)
(10.3275 0.149801 -1.86246e-21)
(10.2874 0.143103 -1.6057e-19)
(10.3539 0.148174 8.16679e-20)
(10.3952 0.167539 -1.84504e-19)
(10.5062 0.136405 -7.77197e-21)
(10.1936 -0.0041833 1.59922e-20)
(10.1984 -0.0150074 -3.4197e-23)
(10.2006 -0.0227279 1.69796e-20)
(10.1986 -0.0345112 -1.12861e-21)
(10.185 -0.0540171 -7.48696e-22)
(10.1927 -0.0332986 1.86604e-21)
(10.2111 -0.0519581 1.56157e-22)
(10.1762 -0.0604532 2.01941e-20)
(10.1818 0.0133107 0)
(10.1974 0.00374647 -1.82508e-20)
(9.99125 0.0370797 -3.71478e-20)
(9.9965 0.0391254 -3.32722e-20)
(10.0037 0.0512439 0)
(10.0162 0.0614155 -2.77396e-20)
(10.0295 0.063122 1.58382e-20)
(10.0593 0.05655 6.20921e-21)
(10.0439 0.0635385 0)
(10.0758 0.0615357 -3.0997e-21)
(10.0945 0.0631429 -1.72561e-21)
(10.1133 0.0627181 4.39046e-21)
(10.1812 0.0243726 -1.0435e-20)
(10.1751 0.0349685 0)
(10.1314 0.0589065 -5.37481e-22)
(10.1642 0.0447221 -1.05416e-21)
(10.1492 0.0525812 -7.25664e-21)
(9.97911 0.01148 -3.24534e-20)
(9.98209 0.023884 0)