/*--------------------------------*- C++ -*----------------------------------*\
  =========                 |
  \\      /  F ield         | OpenFOAM: The Open Source CFD Toolbox
   \\    /   O peration     | Website:  https://openfoam.org
    \\  /    A nd           | Version:  8
     \\/     M anipulation  |
\*---------------------------------------------------------------------------*/
FoamFile
{
    version     2.0;
    format      ascii;
    class       volScalarField;
    location    "6000";
    object      k;
}
// * * * * * * * * * * * * * * * * * * * * * * * * * * * * * * * * * * * * * //

dimensions      [0 2 -2 0 0 0 0];

internalField   nonuniform List<scalar> 
4109
(
0.0294943
0.0310431
0.0297417
0.0310131
0.0317424
0.0314662
0.0319627
0.030149
0.0330109
0.0325452
0.0325709
0.0333187
0.0298539
0.0316906
0.0324089
0.0337109
0.0334959
0.03351
0.0338681
0.0325537
0.0298961
0.0313772
0.0314084
0.0345923
0.0346237
0.0350342
0.0295895
0.0316265
0.0298773
0.0348557
0.0335083
0.0328099
0.0313516
0.0312918
0.0322218
0.0351654
0.0350532
0.0361743
0.0318924
0.0298491
0.0315745
0.0317702
0.0302765
0.0355139
0.0341217
0.0955025
0.0476984
0.0334849
0.0329026
0.0312279
0.0322424
0.0358539
0.0366372
0.0379046
0.0336103
0.0317964
0.0293667
0.0318969
0.0323664
0.0331448
0.032878
0.121506
0.0367272
0.0351031
0.0344442
0.0413692
0.0870588
0.0337479
0.0327674
0.032478
0.0393814
0.0373379
0.0425474
0.0413715
0.0411864
0.0341543
0.0340533
0.0326715
0.0311607
0.0328945
0.0325822
0.0329289
0.0334803
0.0336144
0.038434
0.0452485
0.100137
0.13104
0.13241
0.0379105
0.0375049
0.0358032
0.0351128
0.0345493
0.0379192
0.0665866
0.033731
0.0325531
0.0427003
0.0410166
0.0398859
0.0429949
0.043713
0.0432582
0.0434024
0.0352869
0.0347659
0.033932
0.0321073
0.0341318
0.038843
0.0333685
0.0338816
0.0341181
0.0346741
0.138193
0.0527392
0.0664457
0.089331
0.140021
0.13757
0.0432812
0.0397092
0.0385823
0.036838
0.0361073
0.0354207
0.034409
0.0669156
0.0343772
0.033823
0.043123
0.0417124
0.0448116
0.0440366
0.0455689
0.0443332
0.035968
0.0356532
0.0355741
0.0337214
0.034815
0.0399891
0.0339471
0.0345554
0.0350241
0.0352688
0.124847
0.0734869
0.140778
0.0934802
0.143833
0.0503993
0.0405643
0.0394826
0.0376552
0.0368704
0.0361797
0.0354503
0.0343712
0.0614698
0.0330966
0.0426388
0.0412535
0.0456743
0.0437598
0.046447
0.0468461
0.0476455
0.0371339
0.0366139
0.0363301
0.0345557
0.0357999
0.0412131
0.0347743
0.0354559
0.0356977
0.0363703
0.0857394
0.156856
0.0884688
0.147536
0.147759
0.051164
0.038783
0.0397309
0.0378945
0.0361464
0.0370806
0.0356197
0.0673089
0.0340214
0.0409557
0.0420216
0.0451887
0.0433404
0.0464316
0.0480914
0.0477229
0.0507254
0.0379035
0.0376177
0.0376496
0.0361747
0.0360477
0.0414334
0.035504
0.0361264
0.0367111
0.0370907
0.0883054
0.158457
0.154126
0.0931502
0.157216
0.0507765
0.0388934
0.0400826
0.0375245
0.0364907
0.0688123
0.0349004
0.0411787
0.0424252
0.0445454
0.0436488
0.0459791
0.0480246
0.0491898
0.0511371
0.053491
0.0391801
0.0385743
0.0383981
0.0372315
0.0369123
0.0424608
0.0370112
0.0362537
0.0400884
0.0375824
0.0382753
0.084894
0.166446
0.0967931
0.161541
0.163428
0.0516306
0.0392031
0.0399782
0.0378984
0.072222
0.0353613
0.0415115
0.0424202
0.0449574
0.0439934
0.0463103
0.0473383
0.0495491
0.0514384
0.0529531
0.0570317
0.0401948
0.0393393
0.0387303
0.0410629
0.0372225
0.0428821
0.0374982
0.0414013
0.0391362
0.0387238
0.173587
0.0846191
0.168898
0.100561
0.173554
0.0522189
0.178178
0.0390004
0.0403526
0.0738845
0.0361639
0.0414869
0.0426744
0.0450577
0.0440033
0.0466197
0.0476818
0.0489256
0.0514043
0.0533722
0.0562288
0.0566062
0.0607034
0.0393255
0.0407661
0.0390696
0.0422313
0.042458
0.0379198
0.0437157
0.0391343
0.0404115
0.0397641
0.0849723
0.181518
0.175603
0.099124
0.179871
0.0529383
0.192185
0.184677
0.201925
0.165711
0.185362
0.156429
0.0883364
0.0370751
0.0403179
0.0423368
0.0432174
0.0439444
0.0454341
0.0467571
0.0477076
0.0491797
0.0578432
0.0504672
0.0532129
0.0559857
0.0613238
0.0648614
0.0632742
0.0693733
0.0416362
0.0411542
0.0434469
0.0438745
0.0414032
0.039233
0.0452221
0.0398999
0.0409902
0.0874925
0.194267
0.181038
0.0528667
0.291805
0.259642
0.201859
0.172462
0.195364
0.221414
0.0754763
0.0759825
0.0811417
0.159978
0.149359
0.151417
0.148046
0.159317
0.150572
0.0387248
0.0452368
0.0452819
0.0459868
0.0606697
0.0470051
0.0479489
0.0493293
0.0507211
0.0577031
0.0522391
0.0552907
0.0651246
0.0617056
0.0681428
0.0678822
0.0765104
0.0808355
0.0429087
0.0436708
0.0450707
0.0450186
0.0427835
0.0421231
0.0402973
0.0449203
0.0414816
0.0915136
0.218406
0.302446
0.258241
0.177273
0.194673
0.221846
0.0795141
0.0814118
0.0869646
0.0826626
0.085638
0.132775
0.139184
0.139541
0.147218
0.160072
0.240385
0.119267
0.0441229
0.0474644
0.0471608
0.0600608
0.0611583
0.0491738
0.0491161
0.0506094
0.0523905
0.05714
0.0540081
0.0657927
0.0637523
0.0692208
0.0721347
0.0768433
0.0786503
0.0456585
0.0449447
0.0423631
0.0475729
0.0465223
0.0439286
0.0434544
0.0497167
0.0429093
0.0417911
0.0498493
0.097304
0.294377
0.324317
0.260233
0.176716
0.19758
0.225335
0.0820357
0.0895074
0.0979474
0.087682
0.0919248
0.122685
0.10927
0.0871524
0.0904033
0.129305
0.137202
0.147586
0.158635
0.257668
0.211415
0.0650532
0.0491777
0.0496754
0.0593154
0.0612047
0.050286
0.0506705
0.0523627
0.0541236
0.0560351
0.0663928
0.0639626
0.0696927
0.0728347
0.0749041
0.0782349
0.0475254
0.0496678
0.0476117
0.0438727
0.043934
0.0454458
0.0467594
0.0447534
0.0509279
0.0485202
0.16991
0.222048
0.0434371
0.0412707
0.304913
0.257193
0.255513
0.326934
0.265677
0.17739
0.199507
0.230036
0.0861815
0.0808368
0.0934813
0.0994577
0.0972087
0.107371
0.118065
0.0920539
0.0961632
0.127289
0.134558
0.147115
0.162411
0.318259
0.273429
0.319548
0.0649505
0.0524513
0.0511497
0.0581017
0.0604347
0.0523506
0.0522429
0.0538896
0.0560982
0.0628431
0.0655458
0.0683769
0.0715453
0.07466
0.0773511
0.0791724
0.05073
0.0507087
0.0453181
0.0450457
0.0462647
0.0476403
0.0493121
0.0529671
0.0500676
0.0451152
0.0510809
0.0556997
0.31422
0.260681
0.243283
0.192409
0.191702
0.331402
0.261553
0.17987
0.190323
0.209855
0.0906919
0.0845432
0.0826236
0.117015
0.102104
0.106039
0.0975871
0.101434
0.125649
0.133304
0.149907
0.164021
0.0870234
0.350397
0.329263
0.352841
0.0777286
0.055125
0.0538545
0.0581752
0.0604453
0.0540305
0.053913
0.0560533
0.0628485
0.0654781
0.0682847
0.0713625
0.0739964
0.0759228
0.0790993
0.0798322
0.0532129
0.054194
0.0469656
0.046971
0.0482613
0.0496738
0.0508926
0.0548004
0.0517955
0.0508242
0.0469147
0.0479006
0.311106
0.166955
0.230566
0.222495
0.192826
0.334703
0.262779
0.175032
0.195203
0.215467
0.241861
0.0956993
0.0839855
0.0893884
0.0840318
0.103494
0.114226
0.108682
0.12574
0.138973
0.152621
0.160453
0.0879181
0.386873
0.371449
0.405543
0.0808998
0.0590792
0.0559638
0.0604228
0.0579751
0.0560394
0.0561971
0.062665
0.0653808
0.0709956
0.0679701
0.0733245
0.0758573
0.0759436
0.0787374
0.0821517
0.056871
0.056096
0.0573878
0.04892
0.04873
0.0508966
0.0524992
0.0535602
0.0530926
0.0487641
0.0504326
0.316673
0.255876
0.144123
0.150031
0.205882
0.197877
0.174268
0.271596
0.331827
0.178324
0.194489
0.211276
0.236283
0.101053
0.0855576
0.0936483
0.0868776
0.0896803
0.110237
0.114315
0.106576
0.127834
0.140724
0.150769
0.164765
0.114237
0.425751
0.426223
0.439761
0.0927029
0.0628288
0.058068
0.0606818
0.0582861
0.0580182
0.0632399
0.0653627
0.0704025
0.0681895
0.0741608
0.0760721
0.0781835
0.0808137
0.0838559
0.060124
0.0598697
0.0596107
0.0555849
0.0509802
0.0510868
0.0525645
0.0534746
0.0544421
0.0507344
0.0545735
0.332287
0.280528
0.242757
0.220205
0.125446
0.133328
0.147221
0.189091
0.178081
0.162938
0.112964
0.273096
0.326601
0.331985
0.177865
0.194801
0.225571
0.211583
0.0993951
0.0881183
0.0924775
0.0893791
0.112206
0.119609
0.105151
0.165273
0.130088
0.137725
0.152394
0.113135
0.473104
0.482242
0.505304
0.0599301
0.099483
0.0645923
0.0611476
0.0607655
0.066695
0.0651655
0.0716397
0.0720622
0.0693426
0.0750062
0.07838
0.0814369
0.0646472
0.0625503
0.0620266
0.0576443
0.0568252
0.0527316
0.0522501
0.0541413
0.0559709
0.0525817
0.0562064
0.0689927
0.0741642
0.276864
0.245261
0.214982
0.196168
0.120339
0.135278
0.150085
0.170769
0.160963
0.108479
0.0999264
0.0926451
0.0825023
0.0790683
0.316712
0.265745
0.316411
0.271536
0.166291
0.179113
0.192034
0.220965
0.098576
0.0905874
0.0934058
0.120369
0.112729
0.105503
0.102385
0.152049
0.151899
0.129711
0.141208
0.136823
0.561909
0.52996
0.526425
0.0666887
0.10115
0.0631769
0.0643509
0.072165
0.0683713
0.0746815
0.0773104
0.0802705
0.0648863
0.0643759
0.059975
0.0586213
0.0573938
0.054906
0.0544396
0.0561992
0.0607743
0.054678
0.0761813
0.0696918
0.0729739
0.240222
0.219898
0.193322
0.175527
0.120687
0.137632
0.147274
0.15429
0.11371
0.0996839
0.102293
0.0776867
0.0909418
0.0802071
0.0844412
0.270056
0.251219
0.237679
0.216712
0.160549
0.174382
0.199627
0.149446
0.0968163
0.0934655
0.117314
0.108098
0.113227
0.106384
0.100771
0.142453
0.14388
0.130359
0.109724
0.615695
0.59585
0.585948
0.0834988
0.10601
0.0673847
0.06113
0.0717545
0.0755892
0.0788884
0.0673075
0.0623843
0.0612879
0.0601526
0.0581436
0.0566674
0.0559436
0.0586191
0.0562867
0.0741112
0.0703321
0.211557
0.215162
0.197772
0.17387
0.157331
0.127472
0.135488
0.140605
0.116536
0.110487
0.102395
0.078811
0.0817585
0.0956394
0.0849412
0.0893226
0.224162
0.214856
0.211725
0.196732
0.140615
0.162656
0.171076
0.151435
0.194424
0.0963315
0.12077
0.11463
0.111044
0.10422
0.0994698
0.123612
0.130032
0.131213
0.115761
0.730861
0.686994
0.732746
0.133458
0.0708374
0.0790708
0.0747133
0.0781521
0.0650864
0.063498
0.0619533
0.0605186
0.0588309
0.0584205
0.0597668
0.058753
0.0741442
0.0679301
0.194005
0.195429
0.176158
0.155573
0.1426
0.125506
0.129216
0.116374
0.108725
0.101897
0.0777907
0.0812213
0.0959921
0.0856277
0.0902391
0.196333
0.189997
0.172801
0.126195
0.132678
0.142127
0.150054
0.175249
0.112162
0.107061
0.101981
0.117577
0.11505
0.122635
0.12614
0.855425
1.1725
0.321317
0.0750207
0.0880311
0.0781136
0.0665036
0.0650156
0.0628517
0.0610206
0.0603374
0.0621996
0.0711032
0.0691893
0.175154
0.173412
0.156032
0.141084
0.130885
0.119481
0.111175
0.103882
0.0975483
0.0744834
0.0782483
0.0918788
0.0823184
0.0868735
0.171672
0.173263
0.15635
0.127904
0.133963
0.140934
0.12328
0.155992
0.108651
0.104317
0.112294
0.113359
0.118378
0.198924
1.66885
1.614
0.579546
0.0801035
0.122157
0.0672455
0.0655821
0.0627101
0.0633864
0.0690066
0.0726282
0.0706923
0.156781
0.156541
0.14143
0.129762
0.12095
0.112623
0.105219
0.0989907
0.0758742
0.079843
0.0932561
0.0837555
0.0884257
0.154182
0.154669
0.142085
0.125249
0.129737
0.118804
0.141626
0.106208
0.10896
0.109898
0.112766
4.05678
0.33141
2.33265
2.47955
1.16908
4.49699
0.0682296
0.0658029
0.067072
0.066807
0.0772133
0.0734344
0.0713263
0.139985
0.140841
0.130337
0.120652
0.112196
0.10549
0.0990715
0.0773421
0.0806352
0.0940963
0.08502
0.088967
0.13751
0.137775
0.13022
0.119148
0.112973
0.127975
0.130351
3.27183
3.60147
0.635976
3.59792
3.58059
4.88527
3.96697
6.43326
0.0691852
0.0659337
0.0704062
0.0706077
0.0943187
0.0744883
0.0709336
0.13114
0.130744
0.120701
0.112466
0.105464
0.0995873
0.0780783
0.0817625
0.094423
0.089892
0.0856633
0.129611
0.122246
0.113346
0.120803
0.12326
0.122457
2.21312
2.86059
3.18074
1.20761
4.51372
3.48146
6.20013
6.25888
0.0709382
0.0705043
0.0754155
0.134923
0.0753579
0.0715701
0.11844
0.118977
0.11166
0.104913
0.0994222
0.0779734
0.0825346
0.094641
0.0904024
0.0862713
0.122343
0.115437
0.116253
0.11843
0.116892
0.116214
1.9374
1.80997
2.49656
2.78419
3.44213
5.86292
4.10778
3.02876
5.86371
6.05932
0.073159
0.0746836
0.0803151
0.0744932
0.075462
0.0775515
0.114041
0.106965
0.102066
0.0968117
0.0814784
0.0818165
0.093736
0.0890156
0.0867671
0.115173
0.112629
0.113614
0.1119
0.110958
1.52355
1.47785
2.16398
2.39523
6.31067
2.98059
5.59515
5.42179
3.68315
2.58979
5.49514
5.85204
0.0749057
0.0774231
0.0775024
0.0788067
0.0819797
0.109998
0.105375
0.101391
0.0970378
0.0836363
0.0848372
0.0936757
0.0902972
0.0875768
0.109164
0.107279
0.105298
6.14525
1.19366
1.20127
1.84523
1.98302
5.89543
2.58129
5.2553
5.15504
4.96524
3.2383
2.13134
5.09637
5.64051
0.0772138
0.0780764
0.0802057
0.0816226
0.104232
0.10242
0.0998783
0.0967538
0.0841733
0.086286
0.0938317
0.0910669
0.0885803
6.73641
5.57116
0.933994
0.96146
1.51144
1.46825
5.43176
2.2256
5.1036
4.80228
4.70478
4.49108
2.74409
1.5744
4.65435
5.42214
7.733
6.19695
5.00117
0.725774
0.737743
1.09825
0.599037
4.9433
1.88819
4.9609
4.68337
4.35587
4.24502
3.98868
2.11203
0.670525
4.12964
5.19121
8.43985
7.33086
5.61365
4.4376
0.548965
0.491931
0.398209
4.42925
1.55359
3.49763
4.65089
4.26079
3.91296
3.76512
3.42506
1.04656
3.41829
9.75368
7.95939
6.86656
4.99701
3.87223
0.367078
0.127298
3.85899
1.36377
2.74128
3.05171
4.32775
3.83813
3.46209
3.23637
2.7128
2.17248
11.2501
8.99339
7.49126
6.33885
4.35528
3.27656
0.0832259
3.12209
1.42687
2.37744
2.63004
3.989
3.40473
2.97477
2.57826
1.51228
11.9105
11.2488
8.11727
6.99961
5.69169
3.67441
2.56204
1.719
1.3082
1.27815
2.05767
2.21939
3.62338
2.93465
2.37896
1.48404
12.1567
11.6019
11.0356
7.17279
6.48462
4.91497
2.88611
1.35722
1.48533
1.1987
1.14333
1.7638
1.80858
3.20539
2.35877
1.3929
8.17399
12.1518
11.0708
10.6053
6.18268
5.89761
3.95885
1.65557
1.59759
1.38047
1.09208
1.01808
1.48098
1.38871
2.66744
1.41473
6.91183
8.05222
11.8915
10.3357
9.95316
5.15149
5.09628
2.58094
1.60919
1.48252
1.273
0.984469
0.895889
1.19417
0.949139
1.76068
6.28277
6.61681
7.70267
11.4231
9.48905
9.03204
4.29992
3.43152
1.51208
1.49313
1.36502
1.15979
0.870461
0.763202
0.869316
0.468753
6.2995
6.09963
6.19682
7.1814
10.7358
8.57127
7.68999
3.14187
1.33094
1.40527
1.37476
1.24211
1.03575
0.740077
0.587385
0.403767
6.85466
6.09804
5.78461
5.70498
6.53262
9.79425
7.57567
5.36034
1.42723
1.21902
1.29607
1.25104
1.10837
0.889713
0.566445
0.262972
8.06862
6.54498
5.77227
5.37992
5.15884
5.76478
8.3692
6.01936
2.64729
1.27944
1.11041
1.18127
1.11654
0.952077
0.691105
0.250252
11.981
7.9359
6.12321
5.36242
4.90097
4.54582
4.85261
5.79887
3.54042
2.30472
1.14511
1.00098
1.05553
0.959439
0.7415
0.334382
11.7326
11.995
7.58659
5.63182
4.88129
4.3402
3.82028
3.80614
4.95581
3.08109
1.99875
1.0201
0.885029
0.907578
0.747941
0.371146
11.0696
11.4266
11.7387
7.08193
5.08423
4.31907
3.65427
2.88893
5.13992
4.64467
2.64874
1.71439
0.897679
0.752539
0.706805
0.377029
9.76968
11.0585
10.8585
11.2708
6.48361
4.46985
3.63103
2.76377
5.237
4.7176
4.32289
2.23242
1.43932
0.764135
0.576798
0.348453
8.421
8.97916
10.8021
10.0076
10.5399
5.8035
3.73757
2.72974
5.56619
4.78097
4.2923
3.98431
1.8187
1.15986
0.587302
0.259314
7.7815
7.95723
8.07679
10.2724
8.9348
9.41508
4.99527
2.78394
5.85972
5.12663
4.33435
3.86741
3.61867
1.39778
0.842429
0.26276
6.75346
7.37506
7.52405
7.11436
9.44892
7.62326
7.54133
3.87662
6.65219
6.26602
5.4243
4.67825
3.89333
3.43167
3.1992
0.951834
0.383032
6.1363
6.21785
6.90104
7.07992
6.09751
8.26973
6.08133
5.09147
5.08235
6.44246
5.93837
4.97199
4.22039
3.44423
2.95754
2.65535
0.456116
6.24875
5.56142
5.63672
6.35866
6.58544
5.07142
6.7392
3.75072
3.40931
4.53494
4.68577
6.22493
5.56952
4.49936
3.74167
2.9574
2.37281
1.72605
5.84658
4.9902
5.01988
5.72162
6.01864
4.29291
5.87736
2.94522
2.06763
4.31046
4.02622
4.25851
6.00329
5.1671
3.99688
3.21266
2.36045
1.40386
2.4423
3.56279
5.39501
4.426
4.37652
4.94912
5.22845
3.38284
2.53827
1.63352
3.82461
3.54579
3.81495
5.77795
4.7175
3.4316
2.55244
1.35594
1.98642
3.13538
4.91531
3.86113
3.69307
3.99714
3.51351
2.18638
1.28411
3.37756
3.09103
3.34978
5.54642
4.18042
2.71252
1.43977
1.61973
2.74894
4.40889
3.26644
2.90129
2.62666
1.85776
1.00832
2.95779
2.64633
2.83223
5.30104
3.44657
1.48565
1.31471
2.39053
3.84374
2.55483
1.6794
1.55596
0.786218
2.54664
2.17956
2.16831
2.14598
1.05074
2.04468
3.11361
1.35929
1.36852
0.596191
2.11095
1.60591
1.04417
0.80581
1.68132
1.73076
0.399639
1.56802
0.662549
0.539065
1.23212
0.0959309
0.646669
0.148622
0.474831
0.0862871
0.084341
0.0856279
0.0856374
0.0870849
0.0868568
0.0875061
0.0875384
0.0882495
0.0827381
0.0838419
0.0842684
0.085468
0.0857857
0.086933
0.0875458
0.091881
0.0933124
0.0946464
0.0968911
0.098336
0.0884445
0.0892436
0.0882732
0.0884321
0.088742
0.0883793
0.0896063
0.0893369
0.0903769
0.101021
0.10218
0.0814158
0.0825202
0.0831422
0.084232
0.0848574
0.0858044
0.0867987
0.0878893
0.0888482
0.0898276
0.0909298
0.0923032
0.0941223
0.0955443
0.0986403
0.100126
0.105618
0.106374
0.0902313
0.0911043
0.0921596
0.0931226
0.0944968
0.0959444
0.0983197
0.089636
0.0900937
0.0896198
0.0896329
0.0905179
0.0898749
0.0918757
0.0913559
0.0927016
0.0981489
0.0999648
0.110616
0.112297
0.104859
0.104609
0.109696
0.0804111
0.081437
0.0823017
0.0833111
0.0842611
0.0852597
0.0864616
0.0873956
0.0891239
0.0902104
0.0916819
0.0929514
0.0968783
0.098314
0.101517
0.102627
0.107157
0.10842
0.113572
0.115722
0.122113
0.122228
0.129211
0.0910777
0.0918019
0.0927627
0.0937808
0.0952505
0.0908135
0.0910863
0.0911649
0.090853
0.0924218
0.0916467
0.09512
0.0940639
0.0933456
0.0956634
0.0993148
0.099547
0.104583
0.106208
0.12582
0.113796
0.121485
0.11057
0.113474
0.0800101
0.0809403
0.0820841
0.0830798
0.0843439
0.0852558
0.0867334
0.0876599
0.0892555
0.0902257
0.0924463
0.0945664
0.102731
0.0998061
0.106154
0.108648
0.113131
0.114619
0.119508
0.129263
0.134926
0.135771
0.149506
0.152132
0.145831
0.154356
0.154946
0.196114
0.0920557
0.0928138
0.0936347
0.094589
0.097469
0.096225
0.0920966
0.0921329
0.0927791
0.0923017
0.0952382
0.0942257
0.0934812
0.0996736
0.0983496
0.0959518
0.0983947
0.100292
0.248702
0.214807
0.307574
0.104697
0.105005
0.110553
0.112791
0.127405
0.129515
0.165408
0.14466
0.121929
0.12798
0.0807287
0.0813149
0.0829291
0.0835373
0.0853266
0.0858709
0.087883
0.0886961
0.091855
0.0910874
0.0953199
0.0967515
0.10155
0.103882
0.113444
0.111618
0.120904
0.129716
0.136732
0.137523
0.149361
0.714193
0.702216
0.493755
0.162357
0.171177
0.186458
0.192759
0.202601
0.217899
0.218488
0.491302
0.292965
6.43664
7.00316
6.85412
6.54004
7.16321
7.18517
6.95616
6.58277
0.093196
0.0935574
0.0945591
0.0954939
0.0971855
0.0961145
0.0934789
0.0932971
0.0952796
0.0944605
0.093942
0.1019
0.100516
0.0992004
0.0980619
0.0967064
0.0996329
0.105652
0.101571
0.104957
6.03548
5.06803
1.86196
1.31914
0.772642
0.1749
0.249739
0.305759
0.564899
0.112814
0.113163
0.114166
0.113719
0.125799
0.127907
0.139738
0.136084
0.164149
6.22892
6.91982
4.54334
7.14358
7.2054
7.19001
5.445
6.07829
6.16728
7.17393
0.0869337
0.0845245
0.0886533
0.0873166
0.0910529
0.0900457
0.0936606
0.0934821
0.0966162
0.0963693
0.100441
0.100354
0.108027
0.111174
0.116715
0.115727
0.121453
0.146917
0.124638
0.159769
0.211187
0.203575
0.247675
0.248857
0.244035
1.2799
1.7862
3.41988
2.48495
1.29566
0.996479
0.356845
0.394922
0.499047
0.505239
1.0214
0.596196
0.580074
3.88652
6.05855
4.96642
5.26925
6.15803
6.68967
6.92232
6.91551
4.97644
4.92437
7.12841
7.08241
5.57515
5.79453
6.38215
7.01963
6.59963
6.96465
0.0944606
0.0946746
0.0955555
0.0968519
0.0972286
0.0962144
0.0957139
0.0950039
0.0946379
0.103986
0.102515
0.101115
0.0999383
0.0988844
0.0978917
0.0975101
0.100508
0.100884
0.104792
0.105294
0.109682
0.104597
2.68318
4.52682
3.52991
5.91347
4.61561
1.67622
2.70585
1.43469
0.753099
0.113119
0.609743
0.200139
0.348408
0.256115
0.123407
0.120273
0.129065
0.124325
0.132249
0.130984
0.149152
0.143236
0.200454
6.24613
7.08722
5.94636
4.28934
4.70203
3.65259
7.32275
7.42614
7.24643
5.9957
4.52806
5.61459
0.188855
0.103186
2.11115
0.646584
0.135747
0.105372
0.124264
0.105194
0.11933
0.104634
0.11783
0.112415
0.109799
0.121489
0.120463
0.143038
0.175974
0.164987
0.201397
0.283273
0.252566
0.336685
0.661677
0.377496
0.407507
0.903124
1.02965
0.552091
0.485794
0.65591
0.633662
0.798765
0.799596
1.92829
2.54656
3.6825
2.97783
2.08536
1.51559
1.16532
1.16963
1.75747
1.31099
1.42953
4.93821
4.32162
5.15437
6.16923
5.86754
6.84952
6.64556
7.10509
7.0114
7.05391
5.2201
5.77671
6.98971
7.00381
6.84533
6.81363
6.51175
0.0976861
0.0956964
0.0957571
0.0966028
0.0971998
0.0964498
0.0961673
0.098339
0.106113
0.104606
0.103011
0.101721
0.100582
0.0994377
0.0988004
0.0978643
0.108095
0.10574
0.107976
0.110326
0.108803
0.110229
0.101438
0.101334
0.101777
0.103437
0.114011
0.108275
0.109736
0.105509
4.62915
4.09879
3.03554
0.983624
2.53509
1.7412
0.119395
0.133229
0.131687
1.09827
0.262859
0.561327
0.363541
0.144664
0.13992
0.152609
0.148607
0.176099
0.165215
0.276804
4.41593
6.61358
7.22215
6.23338
5.30795
7.45478
3.35768
3.90589
2.72669
7.66031
7.44831
6.66558
5.50162
4.00022
4.7431
4.74005
1.19313
0.340519
4.56666
3.58408
0.686471
0.334964
0.521553
0.254444
0.401499
0.216239
0.342299
0.182516
0.247461
0.445917
0.779524
0.555223
0.962687
0.620897
0.758245
1.34621
1.67192
1.82997
1.18525
1.19735
1.86084
2.09373
1.24457
1.37529
1.67296
1.58398
1.95969
1.67438
3.94897
2.76603
3.31096
3.14301
2.68355
2.53666
2.90863
2.19001
2.70118
5.38831
4.52416
6.74381
6.05924
6.36822
7.07478
6.97254
6.92195
7.00144
6.52608
6.6139
0.10997
0.108458
0.0970661
0.0982459
0.0975381
0.0969995
0.0970138
0.0985769
0.0997
0.104782
0.102922
0.102217
0.10075
0.100236
0.0991504
0.0988472
0.0980961
0.106734
0.104837
0.105984
0.107102
0.105414
0.106762
0.101131
0.101725
0.103005
0.105701
0.12062
0.113646
0.114685
0.108722
1.79891
2.65244
3.52815
0.129593
0.142663
0.141335
0.163879
0.159011
0.784087
1.83902
0.360282
0.709547
0.199173
0.182913
0.27407
0.2364
0.369449
3.59604
5.12883
4.76285
6.87808
6.98505
7.36243
7.79227
7.71799
2.65547
3.60391
7.40711
6.4708
5.72642
4.05222
4.76356
4.77073
2.08626
4.79475
5.1164
5.63869
3.7903
2.39487
5.78647
6.27722
3.38019
1.7372
2.62083
1.23126
2.01871
1.02315
1.35972
1.5803
1.20694
2.18764
1.79517
1.73103
1.70377
1.82576
2.77653
2.87097
2.99913
3.31602
2.53544
2.37389
3.40257
3.59101
2.5746
2.82575
3.30463
3.11552
3.49679
4.70712
4.18895
4.54793
3.71755
4.26352
4.23151
3.98998
4.41065
6.37104
5.7062
6.97037
6.81795
6.91183
6.92605
6.35229
6.45654
0.111827
0.109318
0.107507
0.106011
0.0985783
0.0984297
0.0987392
0.0995354
0.100679
0.103867
0.102439
0.101764
0.100652
0.100238
0.0994199
0.0994641
0.103702
0.104573
0.103088
0.104272
0.103446
0.104478
0.102082
0.102173
0.104011
0.109951
0.105697
0.102616
0.130501
0.121541
0.122566
0.115435
0.138656
3.15775
2.29762
0.154794
0.151533
0.184815
0.17962
0.263526
0.313044
0.249811
0.790954
2.07683
0.956408
0.499638
0.41684
0.863466
5.07819
4.23269
7.38274
6.75872
7.96469
7.8491
7.56507
7.2871
6.88211
6.53685
0.2104
0.70535
4.68036
5.55238
1.28238
3.89455
5.77811
5.47012
6.30828
6.05836
5.52897
6.20877
5.92862
5.31237
5.37352
3.55648
4.28987
3.29616
2.92001
2.89792
4.23707
3.34007
4.18597
3.51511
3.69367
4.28965
4.65805
4.60091
4.71084
4.25136
4.1175
3.76087
4.9198
5.09263
4.25946
4.44545
5.1152
5.01049
5.81479
6.07975
5.63448
5.50582
5.80969
5.48529
5.69671
6.82112
6.70125
6.68375
6.72478
6.07276
6.17624
0.0882954
0.109285
0.112428
0.111046
0.109207
0.106993
0.105569
0.104043
0.0996426
0.0998212
0.100168
0.100277
0.102643
0.102369
0.101658
0.10091
0.10042
0.10006
0.101264
0.102194
0.101461
0.102485
0.102115
0.103026
0.102247
0.106253
0.107072
0.116191
0.105182
0.106724
0.142512
0.126376
0.130066
0.117101
0.159467
0.186588
0.168247
4.47194
2.79408
0.250619
0.210454
0.491406
0.41005
1.21279
1.04781
0.887361
2.32605
3.05966
1.66089
7.34184
6.22772
8.09803
8.21461
7.96114
7.56313
7.10422
6.74549
0.147897
0.452996
4.10866
6.35623
0.844089
2.38482
6.33675
6.15557
5.94283
6.54571
6.07201
5.58292
6.94253
6.23686
6.8714
6.45781
6.04475
6.0367
5.64053
4.70221
4.75381
5.93709
5.41746
5.16831
5.39452
5.61142
5.49972
5.75633
5.68169
5.63636
5.58243
5.88744
5.13199
5.41433
5.923
5.91091
5.63851
5.73415
6.03615
6.07614
6.2937
6.22835
6.63631
6.40264
6.38122
6.4618
6.5101
5.76724
5.92024
0.0812906
0.0851354
0.0894914
0.108476
0.111028
0.110166
0.108877
0.108317
0.106996
0.105156
0.102738
0.104171
0.107606
0.108723
0.101439
0.100387
0.0997176
0.0998979
0.100681
0.0999318
0.0998275
0.100273
0.100896
0.100628
0.101576
0.101466
0.102139
0.103072
0.105518
0.108948
0.114425
0.117197
0.110813
0.139026
0.163122
0.125854
0.142431
0.177328
0.231617
0.200971
0.251611
0.390201
0.285265
6.41014
5.3523
1.12273
0.823331
2.53317
1.97958
4.38869
5.80262
3.95246
8.41823
8.36882
8.51008
8.03166
7.71001
7.19639
0.132883
0.320047
3.27312
6.21653
0.558999
1.586
6.09937
6.91301
5.33415
5.5043
6.67882
5.91887
6.84426
6.61155
5.25079
5.76533
6.50719
6.3855
6.50626
6.22898
6.4352
5.7959
5.99377
6.12472
6.12153
5.87703
5.92092
5.76589
5.79613
5.75972
5.65382
5.69982
5.57774
5.42382
5.41703
5.94662
5.9358
5.96738
5.85133
6.00718
5.95807
5.98512
5.86733
5.99532
6.23272
6.29571
6.00668
5.58515
5.75067
0.0798497
0.0815214
0.0836143
0.0882659
0.0916305
0.107615
0.107288
0.106747
0.105892
0.105941
0.101945
0.103819
0.103085
0.104861
0.105327
0.105129
0.104386
0.105593
0.103394
0.103374
0.101401
0.101474
0.103488
0.100556
0.100018
0.100393
0.100161
0.101777
0.10029
0.100536
0.100848
0.101112
0.101414
0.101963
0.102343
0.105707
0.111384
0.107724
0.115507
0.124446
0.122235
0.130371
0.158767
0.18309
0.142381
0.161715
0.211737
0.277816
0.677572
0.61265
0.483306
0.912766
1.83395
1.79529
8.61822
7.78681
4.25393
4.43093
6.75174
7.92064
6.7562
9.19769
8.71934
8.49259
8.05695
0.125517
0.24502
2.4803
5.11485
0.386125
1.08108
5.20526
7.04071
5.6478
5.15751
6.7914
6.34768
5.66365
5.30647
4.96195
4.94018
6.01069
6.12616
5.2082
5.6534
5.40151
5.83871
5.75967
5.79514
5.78939
5.42193
5.45116
5.01483
5.00204
4.89206
5.17016
4.77342
4.62989
4.0647
3.69945
4.36645
4.45181
5.39095
5.81387
5.81701
5.30346
5.40253
5.45387
5.40794
5.0428
5.47734
0.104984
0.0799022
0.0806991
0.081904
0.0839102
0.0863002
0.0906059
0.0941613
0.0809467
0.0809729
0.0825052
0.0822591
0.0844168
0.0837398
0.0994838
0.0998619
0.0976155
0.0980874
0.0956138
0.0962186
0.0934576
0.094258
0.0866416
0.0856737
0.088993
0.0876978
0.0912486
0.0921059
0.0898987
0.104495
0.103983
0.103446
0.103806
0.102818
0.102498
0.103224
0.102315
0.102511
0.101934
0.103083
0.100439
0.100736
0.098546
0.098895
0.102416
0.100982
0.10222
0.100842
0.101601
0.101814
0.101609
0.101807
0.102012
0.102695
0.103011
0.103097
0.102796
0.103467
0.109283
0.105127
0.11876
0.112469
0.123727
0.137643
0.132351
0.149084
0.186253
0.235294
0.168002
0.200886
0.291998
0.635018
3.15405
2.39093
3.22798
1.46406
3.141
5.21351
6.01859
9.54041
9.41442
8.34153
9.47448
8.538
9.6483
8.8625
0.118731
0.195631
4.60855
1.71772
2.76464
0.285303
0.75228
6.18865
6.87949
5.79494
5.20488
6.58341
6.13324
6.6272
4.77331
4.68334
4.68903
5.27866
5.1884
4.4267
4.66446
4.67996
4.42974
4.85232
4.99536
4.53544
4.47183
4.0764
4.01886
3.53972
3.60957
3.83248
2.86448
2.87755
2.57345
2.58378
3.31416
4.85864
4.73316
3.61414
4.18016
4.02309
0.105118
0.0928719
0.0964325
0.0817872
0.0827011
0.0843158
0.0865912
0.0892342
0.0826016
0.0829237
0.0837878
0.0838493
0.085258
0.0851775
0.0966907
0.0972925
0.0948327
0.0956539
0.0928283
0.0938451
0.0907279
0.0920253
0.0870388
0.0866917
0.0887905
0.0901223
0.0883499
0.102436
0.101959
0.10172
0.102488
0.102299
0.100005
0.100502
0.100096
0.10115
0.0982451
0.0987095
0.0964144
0.0969364
0.102126
0.10278
0.102459
0.104144
0.103581
0.103977
0.104321
0.103833
0.104639
0.105741
0.104368
0.104615
0.104148
0.112435
0.107897
0.108364
0.126968
0.117337
0.13394
0.1567
0.151291
0.177458
0.208866
0.422088
0.204563
0.275146
0.614997
1.98592
6.1635
6.90107
6.07467
7.31874
3.96663
6.80952
8.48002
9.42342
10.4199
10.128
10.2245
0.116234
0.146008
0.200961
2.92362
4.90798
1.1164
2.17705
0.444605
5.46939
6.408
5.35435
4.77197
5.88388
5.5021
6.33785
6.47727
6.05861
5.81059
4.21264
4.36549
4.39341
4.28825
3.94379
4.01378
3.92843
3.81739
3.96295
3.98693
3.6279
3.60142
3.11154
3.19172
2.53066
2.64744
2.09504
2.14647
1.90802
1.82302
3.29265
1.83756
2.80833
4.94072
0.0960154
0.101846
0.0893579
0.0931089
0.0839001
0.0852504
0.0871806
0.0845423
0.0849127
0.0854581
0.0855409
0.0866549
0.0866524
0.0947542
0.0953831
0.0931137
0.0938997
0.0913908
0.0922771
0.08976
0.0908068
0.0882049
0.0892997
0.0879219
0.100931
0.100875
0.100874
0.100672
0.0982255
0.099055
0.0987761
0.100148
0.0965681
0.0972838
0.0949501
0.0956691
0.102735
0.102125
0.104914
0.10395
0.109267
0.107572
0.110338
0.109468
0.10667
0.107685
0.110604
0.108388
0.106327
0.112145
0.107606
0.107727
0.121224
0.12061
0.139464
0.137161
0.174966
0.171385
0.232729
0.197727
0.317468
0.727442
0.261331
0.39974
1.72681
4.22365
6.45525
9.50397
9.57877
9.57496
9.78159
10.7227
10.6648
10.9659
0.709906
0.105988
0.11
0.138115
0.181496
0.332206
3.99373
1.61578
2.42651
5.61039
4.40954
4.3739
4.83351
5.62534
6.04344
4.82455
5.30255
6.14291
6.08734
5.61308
5.18764
3.78877
3.97597
3.62137
3.63957
3.52901
3.54843
3.41323
2.95364
3.22987
3.1976
2.4487
2.63797
1.98456
2.15578
1.63661
1.75711
1.49821
1.47358
0.0939172
0.0973871
0.086468
0.0881771
0.090944
0.0862999
0.0877683
0.0870138
0.0874333
0.0878752
0.0879427
0.093334
0.0942506
0.0916771
0.0929245
0.0903377
0.0914924
0.0890361
0.0902304
0.0890403
0.101334
0.0999628
0.100115
0.100505
0.0973036
0.0981383
0.0998361
0.0982541
0.0957118
0.0966617
0.0943774
0.0951852
0.105276
0.104023
0.104052
0.107987
0.106118
0.114917
0.114252
0.113487
0.115829
0.122406
0.11966
0.120133
0.117325
0.116242
0.112354
0.110092
0.120132
0.116747
0.123323
0.146846
0.137038
0.216337
0.216963
0.170892
0.202912
0.311266
0.314394
1.00452
2.03312
0.894682
3.81498
5.78733
7.69066
10.4072
11.7769
11.5461
11.5011
1.4956
2.0093
0.099996
0.539344
1.02745
0.107981
0.112116
0.1194
0.153642
0.195849
0.316568
3.9013
3.15462
5.57906
5.13488
3.91077
4.27552
5.87305
5.97461
4.2893
4.8037
5.75774
5.58944
4.93934
3.37365
3.55622
2.95518
3.10184
3.11385
2.96439
2.5239
2.65798
2.09079
2.27474
1.75614
1.89736
1.43176
1.60795
0.0965795
0.0890865
0.0922246
0.0943432
0.0946818
0.0884546
0.0900448
0.0886778
0.0895388
0.0893461
0.089605
0.0927244
0.0938908
0.0916055
0.0925775
0.0904045
0.0914576
0.0903344
0.0943907
0.100275
0.100002
0.101445
0.0992537
0.0981086
0.0970253
0.101699
0.0971246
0.0962066
0.096125
0.105106
0.103395
0.106931
0.109554
0.1097
0.114799
0.113577
0.123174
0.12533
0.128376
0.127303