/*--------------------------------*- C++ -*----------------------------------*\
  =========                 |
  \\      /  F ield         | OpenFOAM: The Open Source CFD Toolbox
   \\    /   O peration     | Website:  https://openfoam.org
    \\  /    A nd           | Version:  8
     \\/     M anipulation  |
\*---------------------------------------------------------------------------*/
FoamFile
{
    version     2.0;
    format      ascii;
    class       volScalarField;
    location    "6000";
    object      p;
}
// * * * * * * * * * * * * * * * * * * * * * * * * * * * * * * * * * * * * * //

dimensions      [0 2 -2 0 0 0 0];

internalField   nonuniform List<scalar> 
4109
(
-0.00551918
-0.0177665
-0.00878844
-0.0287345
-0.0298723
-0.0185173
-0.0286845
-0.0146578
-0.0391915
-0.0396613
-0.038983
-0.0429227
-0.00912347
-0.0228742
-0.0317497
-0.0463236
-0.0506845
-0.0466958
-0.0450618
-0.0419502
-0.00271245
-0.0324335
-0.0327358
-0.0537407
-0.0545833
-0.0622135
-0.00304039
-0.00825833
-0.00559349
-0.0520195
-0.0455567
-0.0470227
-0.0299835
-0.08687
-0.0618075
-0.0572076
-0.0622117
-0.0762199
-0.0165339
-0.00504393
-0.000180486
-0.0132436
0.00037032
-0.0560867
-0.0517978
0.0902574
-0.0558568
-0.0470815
-0.0550415
-0.076428
-0.0682992
-0.0658428
-0.0716374
-0.0884035
-0.0239685
-0.0109656
-0.00519815
0.0150117
-0.00958158
-0.0210206
-0.0678245
0.0650807
-0.061624
-0.0561847
-0.052304
-0.0337102
-0.0585245
-0.0519314
-0.0577276
-0.0536823
-0.105321
-0.0803952
-0.125614
-0.125504
-0.127081
-0.0299602
-0.0327585
-0.0231535
-0.0123309
-0.0206113
-0.0117977
-0.0150717
-0.0160048
-0.0261765
0.0156374
-0.206772
0.123734
-0.236276
-0.0080612
-0.0811829
-0.0712154
-0.0614968
-0.0557027
-0.053337
-0.0540885
0.0316517
-0.0530293
-0.0620132
-0.125366
-0.108776
-0.0978356
-0.139418
-0.137303
-0.145535
-0.151036
-0.0344359
-0.0374271
-0.0399127
-0.0230623
-0.00477173
0.0639435
-0.015371
-0.0156195
-0.02366
-0.0302209
-0.57898
0.112123
0.011867
-0.0054962
-0.309716
-0.120345
0.261545
-0.0882519
-0.077731
-0.0695279
-0.0562375
-0.0550347
-0.0464359
-0.0744122
-0.0632857
-0.0569439
-0.119834
-0.111587
-0.148541
-0.13342
-0.178068
-0.166457
-0.0416012
-0.0475706
-0.050426
-0.0340263
0.00853442
0.0595802
-0.0129567
-0.0243082
-0.0271606
-0.0345384
0.0879762
0.0820168
-0.215337
-0.100482
-0.137514
0.0954457
-0.0861909
-0.08412
-0.0756695
-0.0600891
-0.0485975
-0.0437203
-0.0396125
-0.00604916
-0.0286314
-0.108917
-0.0999429
-0.148013
-0.123335
-0.166229
-0.181396
-0.21468
-0.0519863
-0.0581081
-0.0627526
-0.0509179
0.00797379
0.0295669
-0.0198811
-0.0237466
-0.025909
-0.0427854
0.0191923
-0.158054
0.0162161
-0.0697004
-0.0838192
-0.0218407
-0.080297
-0.0852325
-0.0723094
-0.0458576
-0.0460239
-0.02811
-0.0138454
-0.0106972
-0.0930001
-0.100403
-0.138518
-0.111903
-0.15737
-0.185241
-0.21627
-0.256732
-0.0663081
-0.0724866
-0.0756639
-0.0670326
-0.0157314
0.00398478
-0.0100892
-0.0119389
-0.0241726
-0.0567897
-0.0928335
-0.103648
-0.0846878
-0.0154276
-0.0943429
-0.046262
-0.0767812
-0.0781677
-0.0944554
-0.0487039
0.0960965
0.0668181
-0.0807211
-0.0858967
-0.127623
-0.0966672
-0.147251
-0.178751
-0.215541
-0.256294
-0.302556
-0.0824532
-0.0866503
-0.0872666
-0.0800837
-0.00852939
0.029423
0.0099277
0.0132288
-0.0989568
-0.0381485
-0.0735881
-0.0638589
-0.0630652
0.0545819
-0.138816
-0.208919
-0.0525785
-0.0850055
-0.0603597
-0.0900521
0.0604718
0.0675249
-0.0632623
-0.0654727
-0.111549
-0.0766352
-0.130948
-0.169768
-0.206454
-0.249025
-0.298308
-0.349493
-0.104211
-0.0950618
-0.0918134
-0.116296
0.0209806
0.101316
-0.0172943
-0.113199
-0.0906346
-0.0616287
-0.175193
-0.129472
-0.2312
0.0634914
-0.197081
0.0101099
1.07808
-0.0565134
-0.0102349
-0.337548
-0.096455
-0.0535678
-0.0290427
-0.086203
-0.044267
-0.108794
-0.152936
-0.196011
-0.237295
-0.285766
-0.333312
-0.370277
-0.382951
-0.11354
-0.116811
-0.108189
-0.134077
-0.130487
0.0198087
0.100884
-0.0553823
-0.107446
-0.0841843
-0.0650458
-0.22231
-0.0283572
-0.0483645
0.402685
0.0501064
1.08396
1.12371
1.13623
1.02863
1.02887
0.970454
-0.661617
-0.249113
-0.148089
-0.112455
0.0147439
-0.0463684
-0.0386951
-0.0805087
-0.131945
-0.177996
-0.371038
-0.226032
-0.271873
-0.322308
-0.394446
-0.400689
-0.411485
-0.386435
-0.13689
-0.136417
-0.153368
-0.148405
-0.12505
-0.0256064
-0.0109042
-0.0909351
-0.103893
0.335401
0.11814
1.01262
-0.105028
1.19983
1.16356
1.16965
1.07774
1.19667
1.21865
-0.314705
-0.362276
-0.329336
0.946682
0.92201
0.993065
0.909659
1.01658
0.109464
0.16471
0.161047
0.0235225
-0.0273167
-0.399093
-0.104626
-0.108902
-0.155069
-0.204731
-0.359991
-0.260839
-0.310791
-0.437648
-0.418983
-0.424637
-0.437551
-0.427237
-0.437876
-0.166471
-0.1594
-0.174266
-0.165224
-0.142
-0.122685
-0.0966674
-0.153446
-0.104094
0.778546
0.616188
1.24479
1.23206
1.15618
1.27704
1.30565
-0.247291
-0.1924
-0.194882
-0.484425
-0.31941
0.827166
0.81217
0.842578
0.942101
1.08284
-0.0892797
0.4461
0.435976
0.0324374
-0.0787601
-0.394255
-0.420848
-0.114469
-0.13085
-0.173671
-0.234259
-0.354246
-0.3027
-0.47296
-0.451008
-0.484064
-0.474547
-0.518038
-0.597353
-0.197885
-0.18569
-0.120147
-0.203094
-0.178612
-0.158252
-0.138448
-0.223418
-0.108681
-0.0777678
-0.104787
-0.263069
1.20503
1.32593
1.32302
1.23144
1.3711
1.40716
-0.797769
-0.0184294
0.188008
-0.0812972
-0.0973342
0.629664
0.410337
-0.313581
-0.168651
0.7164
0.842808
0.987725
1.16509
-0.155412
0.0241096
0.13229
-0.0272237
-0.101538
-0.400932
-0.445773
-0.128743
-0.143983
-0.191636
-0.269375
-0.354383
-0.52827
-0.491342
-0.552827
-0.553424
-0.655056
-0.867383
-0.231927
-0.244753
-0.215998
-0.123045
-0.134631
-0.174446
-0.193955
-0.150518
-0.245256
-0.215768
-0.521867
-0.25049
-0.239586
-0.0475153
1.25016
1.23364
1.16548
1.42901
1.42567
1.32472
1.48583
1.53929
-0.632133
-1.19522
0.045372
0.200347
0.0721586
0.402804
0.584331
-0.099107
0.0133296
0.71178
0.87065
1.07811
1.27825
-0.257034
-0.225483
-0.229228
-0.0574399
-0.0468341
-0.101261
-0.414273
-0.477038
-0.136452
-0.1606
-0.225622
-0.323234
-0.53982
-0.597566
-0.643709
-0.666893
-0.869449
-1.17153
-1.45096
-0.269864
-0.282442
-0.145787
-0.140717
-0.165222
-0.185306
-0.209495
-0.281822
-0.242533
-0.202734
-0.0787229
0.366418
1.32563
1.30231
1.23979
1.07004
1.16186
1.54985
1.55075
1.43835
1.59975
1.63095
-0.393913
-0.997926
-1.71263
0.55072
0.253612
0.353283
0.129796
0.184876
0.731251
0.967481
1.22458
1.41145
0.302631
-0.185553
-0.252051
-0.261185
-0.101027
-0.0211829
-0.0519459
-0.39402
-0.477868
-0.198457
-0.135132
-0.285672
-0.567964
-0.663835
-0.756103
-0.829806
-1.0998
-1.38822
-1.76781
-2.05781
-0.315336
-0.320791
-0.120825
-0.14789
-0.166044
-0.187211
-0.223592
-0.317971
-0.283339
-0.244869
-0.0486642
0.0239532
1.43186
0.967932
1.34164
1.2748
1.14734
1.67643
1.68074
1.56807
1.72244
1.73617
1.70148
-0.110414
-2.17662
-0.695712
-1.36904
0.33718
0.548033
0.369691
0.824998
1.15493
1.385
1.5622
0.0282335
-0.113631
-0.173769
-0.141452
-0.0749004
0.0940027
0.0348778
-0.481344
-0.371492
-0.264251
-0.182414
-0.60161
-0.736744
-1.00263
-0.872875
-1.30749
-1.96693
-1.6263
-2.26198
-2.49964
-0.359573
-0.35652
-0.355722
-0.134695
-0.155798
-0.195306
-0.246856
-0.321019
-0.282288
-0.0871886
-0.0732894
1.55511
1.43173
0.823087
0.955813
1.33534
1.21936
1.04427
1.79476
1.78981
1.70887
1.84583
1.84017
1.8166
0.159232
-2.72872
-0.336214
-1.78267
-0.950548
0.495313
0.658568
0.394367
1.0279
1.33453
1.55786
1.72999
0.0200552
-0.0201855
-0.0981162
-0.10183
0.0297737
0.17875
-0.00186181
-0.511145
-0.358596
-0.268556
-0.680251
-0.835999
-1.16721
-1.00311
-1.55543
-1.96332
-2.3257
-2.73474
-3.09669
-0.400905
-0.393522
-0.396043
-0.364766
-0.142048
-0.163165
-0.218352
-0.281001
-0.323129
-0.0767693
-0.042094
1.67769
1.58288
1.51707
1.41455
0.634662
0.815304
0.926395
1.2924
1.15709
1.0056
0.42216
1.88451
1.87224
1.79088
1.85981
1.95483
1.91877
1.95463
0.0572311
-2.2749
-0.508158
-1.31442
0.657086
0.862846
0.429379
1.91285
1.22043
1.53121
1.7598
0.0456008
-0.0417447
-0.0818292
-0.0519595
-0.16351
0.0330199
0.0559698
-0.533445
-0.345424
-0.895988
-0.758098
-1.31819
-1.66339
-1.15498
-2.21129
-2.84229
-3.36272
-0.416223
-0.449802
-0.444688
-0.415474
-0.37313
-0.156812
-0.182074
-0.254306
-0.324343
-0.0770767
-0.0296327
-0.396543
-0.339517
1.69514
1.61902
1.50279
1.37956
0.643382
0.811361
0.945368
1.23295
1.08884
0.456343
0.208081
0.00843535
-0.159856
-0.274316
1.91063
1.94409
1.8787
1.80038
2.09566
2.00663
2.0367
2.00002
-0.0355626
-1.73925
-0.792516
1.04823
0.783962
0.642208
0.382491
2.20315
1.98362
1.44653
1.7803
0.031137
-0.110534
0.0176823
0.498308
-0.351056
-0.0489857
-0.724621
-0.493347
-1.5604
-1.15067
-1.9289
-2.78844
-3.50376
-0.464224
-0.490538
-0.474079
-0.433726
-0.378889
-0.177077
-0.220502
-0.303528
-0.0573823
-0.0712859
-0.333937
-0.440386
-0.371037
1.71403
1.60607
1.47786
1.32229
0.661666
0.834383
1.00269
1.15678
0.497051
0.254727
0.334044
-0.330793
0.0552832
-0.244336
-0.113842
1.89919
1.96487
1.81807
2.03615
2.25047
2.12705
2.08114
2.38175
-0.247205
-1.14003
1.28123
1.15727
1.02121
0.999772
0.319958
2.0715
2.34365
1.78102
0.219215
0.148273
0.90155
0.566277
-0.251007
-0.390963
-0.876926
-0.564819
-1.67069
-2.56248
-3.49804
-0.519099
-0.532588
-0.505435
-0.451497
-0.368862
-0.228854
-0.280342
-0.0935665
-0.106778
-0.410971
-0.52015
1.83133
1.71874
1.58642
1.42848
1.23829
0.691709
0.88453
1.06009
0.535126
0.37883
0.18934
-0.416066
-0.367221
0.0385948
-0.27799
-0.137323
1.92417
2.00411
1.94481
2.12186
2.55421
2.39933
2.23111
2.531
1.94682
-0.483673
1.71687
1.59074
1.43879
0.940346
0.234361
2.36225
2.20644
2.52617
0.198209
0.636239
2.16091
0.458422
0.47674
-1.23376
-0.768411
-2.15789
-3.33664
-0.587022
-0.581659
-0.54468
-0.462283
-0.298012
-0.362453
-0.155466
-0.149053
-0.52188
-0.627578
1.83644
1.71223
1.55028
1.33483
1.13106
0.739096
0.935431
0.573965
0.382145
0.187889
-0.503511
-0.441146
0.000207277
-0.334148
-0.183002
2.08372
2.02867
2.283
2.93888
2.71637
2.73413
2.55353
2.00289
1.88095
1.5593
0.983545
2.2839
2.72094
3.03323
0.121135
0.849574
-0.129427
-0.197982
-1.67408
-0.962935
-2.98706
-0.655646
-0.645752
-0.590359
-0.295476
-0.454059
-0.346295
-0.648094
-0.720329
1.69419
1.84748
1.45839
1.20401
0.9985
0.783489
0.603289
0.395173
0.171209
-0.626258
-0.554668
-0.0555514
-0.432154
-0.262152
2.13772
2.23391
2.52645
3.24884
2.98231
2.83347
3.49521
2.04462
2.12933
1.73262
2.66901
3.11725
3.54216
-0.208068
0.0814339
0.121546
-0.195096
-2.39543
-1.35322
-0.746088
-0.717153
-0.486963
-0.603245
-0.620937
-0.760478
-0.842767
1.6303
1.82899
1.32167
1.07377
0.837292
0.638491
0.401899
0.141203
-0.753657
-0.684956
-0.120158
-0.55048
-0.357169
2.25316
2.42308
2.80927
3.51108
3.17325
3.92374
2.02949
2.44912
3.13024
3.71754
4.23675
-32.1608
-0.239579
0.284689
0.336553
-0.404103
-31.4206
-0.852484
-0.764742
-0.888807
-1.00582
-0.70951
-0.912043
-0.993432
1.7514
1.51224
1.19665
0.910289
0.689401
0.41237
0.106027
-0.924111
-0.853469
-0.198307
-0.699525
-0.474849
2.65417
2.34254
3.29013
3.97101
4.59887
2.52074
2.07562
-34.2407
-32.161
-0.147961
0.149632
0.193654
-29.3901
-31.295
-31.6573
-0.989125
-1.03999
-1.17251
-1.19754
-0.824945
-1.11762
-1.19046
1.71652
1.41368
1.0331
0.779253
0.429912
0.0515932
-1.1749
-1.09394
-0.311398
-0.638464
-0.905877
3.09205
3.90918
4.7334
2.93844
2.51728
2.07911
-35.2223
-34.3098
-32.1617
-0.503905
-28.7992
-31.0354
-33.8523
-30.8685
-1.32367
-1.4951
-1.54135
-1.34413
-1.42996
-1.46556
1.64133
1.24321
0.941279
0.470027
-0.00760206
-1.56707
-1.43717
-0.448999
-0.843087
-1.1766
3.75832
4.71494
2.85152
3.50994
2.52586
2.06905
-36.0578
-35.3692
-34.3435
-32.1458
-34.9173
-27.3715
-28.5576
-30.7826
-33.988
-30.6566
-1.76584
-1.98077
-2.32044
-1.92785
-1.76926
-1.93918
1.5136
1.01728
0.454143
-0.102813
-2.15644
-1.86641
-0.628236
-1.10129
-1.51611
4.54759
3.21389
4.20036
2.76772
2.20233
-36.0678
-35.4939
-34.3598
-32.1254
-33.7245
-35.1577
-27.5157
-27.3729
-28.4291
-30.5554
-33.9019
-30.642
-2.30498
-2.89573
-2.43823
-2.56368
-2.69988
1.60739
1.00504
0.377167
-0.258443
-2.53289
-2.2513
-0.862551
-1.40876
-1.88462
3.72432
3.13598
2.45532
-38.6471
-35.9427
-35.5803
-34.3696
-32.1023
-33.7933
-35.3207
-25.4046
-27.5541
-27.3421
-28.337
-30.3482
-33.7768
-30.5619
-3.21643
-3.36467
-3.41145
-3.36266
1.74576
1.00954
0.259424
-0.472722
-3.13235
-2.76597
-1.15598
-1.77306
-2.31519
-41.4816
-38.7541
-35.8263
-35.6418
-34.3811
-32.0797
-33.9289
-35.4801
-24.9739
-25.4235
-27.5839
-27.294
-28.2648
-30.1631
-33.633
-30.3938
-46.1746
-41.6714
-38.8265
-35.7394
-35.6869
-34.395
-32.0567
-34.043
-35.6523
-20.9993
-25.1543
-25.4386
-27.5874
-27.2671
-28.193
-30.0441
-33.4849
-30.1921
-48.875
-46.0095
-41.7771
-38.8868
-35.6811
-35.7222
-34.4113
-34.1289
-35.8415
-25.3309
-20.8016
-25.287
-25.4379
-27.5719
-27.2564
-28.1163
-33.3655
-94.085
-48.4136
-45.9738
-41.851
-38.9161
-35.643
-35.7448
-34.179
-36.0158
-20.0814
-26.1119
-20.8103
-25.3514
-25.4364
-27.5472
-27.2623
-33.3121
-30.727
-103.37
-47.2703
-46.0219
-41.9063
-38.9215
-35.6237
-34.1798
-21.6754
-20.2009
-26.9365
-20.8395
-25.3761
-25.4369
-27.5221
-27.2692
-44.7724
-31.1424
-112.307
-46.014
-46.093
-41.9342
-38.9106
-34.1492
-20.9367
-21.7421
-20.2702
-27.7226
-20.8744
-25.3782
-25.4436
-27.5126
27.2911
-52.3656
-30.8411
-120.37
-44.7437
-46.1554
-41.9393
-38.8862
-20.8893
-20.8942
-21.8204
-20.3415
-28.4513
-20.9191
-25.3719
-25.4516
34.8887
30.3893
-60.8382
-30.3272
-127.468
-43.4582
-46.1519
-41.9213
-20.4705
-20.8337
-20.8538
-21.8754
-20.4273
-29.1574
-20.948
-25.3809
47.2584
35.9785
33.5059
-68.6894
-29.6892
-134.163
-42.2794
-46.0795
-20.4774
-20.4017
-20.7791
-20.8198
-21.9137
-20.5241
-29.8405
-20.9376
49.9567
48.1215
37.1026
35.8247
-75.8275
-28.8915
-141.175
-41.4789
-20.9043
-20.4061
-20.3285
-20.7261
-20.7941
-21.9418
-20.6187
-30.2661
49.8837
50.5081
49.0265
38.0309
37.7675
-82.8311
-28.1523
-146.459
-20.9524
-20.8463
-20.3313
-20.2606
-20.6761
-20.7749
-21.9635
-20.6874
47.4729
50.4757
51.1204
49.7568
38.9253
39.5756
-90.6205
-28.0443
-21.6906
-20.9071
-20.7903
-20.2623
-20.2006
-20.631
-20.7592
-21.9781
34.5062
48.1988
51.0661
51.6758
50.3453
39.8876
41.3631
-97.2237
-20.0365
-21.7617
-20.8658
-20.7356
-20.2014
-20.1487
-20.5959
-20.7477
27.0177
35.5506
49.0574
51.6037
52.1613
50.8344
40.9036
42.6142
-25.3291
-20.1212
-21.8408
-20.8312
-20.6836
-20.1489
-20.1103
-20.5788
-43.7
29.9407
36.6501
49.7616
52.0772
52.5891
51.2135
41.573
-20.9957
-26.1649
-20.1841
-21.8974
-20.8055
-20.6364
-20.1097
-20.0925
-29.8533
-51.3061
32.8537
37.5415
50.3308
52.4958
52.9447
51.4316
-24.8868
-20.7889
-27.0015
-20.2516
-21.9377
-20.7863
-20.5995
-20.0916
-94.0943
-30.3245
-59.6564
34.9497
38.3916
50.7954
52.8429
53.146
-25.3642
-25.0675
-20.7904
-27.7872
-20.3321
-21.9685
-20.7707
-20.5815
-49.0279
-103.797
-29.8946
-67.3204
36.6977
39.3268
51.163
53.0392
-27.5204
-25.3888
-25.1952
-20.8173
-28.5138
-20.4216
-21.9927
-20.7591
-45.7821
-48.502
-112.853
-29.1985
-74.2481
38.3683
40.2833
51.3738
-27.2572
-27.5458
-25.4043
-25.2541
-20.8525
-29.2167
-20.5112
-22.0085
-41.6609
-45.6415
-47.3041
-121
-28.3855
-81.0749
39.988
40.8838
-30.5868
-34.3103
-27.2645
-27.5753
-25.4052
-25.2753
-20.8963
-29.8865
-20.5736
-38.3511
-41.8298
-45.635
-46.0415
-128.2
-27.4518
-88.5966
41.2292
-28.2284
-30.5196
-34.3408
-27.2332
-27.5808
-25.4052
-25.2718
-20.9234
-30.2996
-33.922
-38.4742
-41.925
-45.7049
-44.7711
-134.985
-26.6193
-94.9847
-34.68
-31.022
-27.9102
-30.5905
-34.2712
-27.1847
-27.5669
-25.4074
-25.2642
-20.9127
-33.8201
-38.5562
-41.9992
-45.7962
-43.4955
-142.101
-26.4828
-35.0381
-35.8587
-31.8098
-30.8223
-27.7921
-30.546
-34.1891
-27.158
-27.5435
-25.4142
-25.2712
-35.297
-34.1268
-33.9386
-38.622
-42.0547
-45.8727
-42.3104
-147.468
-35.2161
-35.9061
-31.7637
-30.5503
-27.6916
-30.4145
-34.0802
-27.1513
-27.5201
-25.4231
-35.3819
-34.2026
-34.0653
-38.656
-42.089
-45.8775
-41.5524
-35.3626
-35.7986
-31.7294
-30.3093
-27.6169
-30.2264
-33.9626
-27.1554
-27.5104
-35.4997
-34.2106
-34.1616
-38.6679
-42.1001
-45.8086
-35.5192
-35.6821
-31.7011
-30.096
-27.5682
-30.0184
-33.8712
-27.1613
-35.59
-34.2181
-34.2181
-38.6589
-42.086
-35.6924
-35.5929
-31.6734
-29.8982
-27.5176
-33.8363
-35.6546
-34.2252
-34.2253
-38.6364
-35.8541
-35.5344
-31.6442
-29.7278
-27.4518
-35.7019
-34.2362
-34.1962
-35.4974
-31.6106
-29.6169
-35.739
-34.2518
-35.4788
-31.5873
-35.764
-34.2685
-3.24516
-3.62981
-3.6818
-4.19543
-4.1732
-4.74233
-3.17463
-3.64118
-2.71815
-3.96089
-4.0278
-4.58082
-4.66996
-5.33344
-5.33496
-6.00216
-8.06284
-8.83018
-8.89186
-9.80715
-9.62905
-5.98233
-6.65939
-4.71087
-5.32971
-3.55935
-4.09169
-2.60554
-3.01675
-2.13423
-10.5594
-10.1932
-4.15196
-4.33876
-4.93471
-5.04204
-5.65423
-5.87014
-6.634
-6.65997
-7.42498
-7.36651
-8.07742
-8.82674
-9.61131
-9.60114
-10.441
-10.622
-11.6238
-11.518
-6.60359
-7.31907
-7.2865
-8.07633
-8.00811
-8.79684
-9.2844
-5.21485
-5.84582
-3.9125
-4.47442
-2.83493
-3.26593
-1.94127
-2.27227
-1.46055
-8.66657
-9.0679
-12.487
-13.4075
-10.1284
-10.9175
-11.8828
-4.23594
-4.47003
-5.09282
-5.33374
-6.03198
-6.14159
-6.88387
-7.18162
-8.00963
-8.09257
-8.88802
-9.65963
-10.5005
-10.4567
-11.2956
-11.2503
-12.2175
-12.3844
-13.0862
-13.4105
-14.5088
-14.0185
-14.8916
-5.68734
-6.47168
-6.57912
-7.25716
-7.45031
-4.26814
-4.8891
-3.01123
-3.50609
-2.01503
-2.36145
-0.702806
-1.18459
-1.44886
-7.1198
-7.89168
-7.63988
-8.79026
-10.1567
-14.4678
-12.5275
-13.9181
-11.3882
-12.5554
-4.14835
-4.49683
-5.16136
-5.45538
-6.17907
-6.47815
-7.20846
-7.41127
-8.22343
-8.49652
-9.17843
-9.66142
-11.204
-10.8264
-12.2282
-12.2428
-13.31
-13.2355
-13.8719
-14.6579
-15.1214
-15.1812
-16.0952
-15.8088
-15.6504
-16.2121
-16.3389
-17.5351
-4.90429
-5.72693
-5.32941
-6.04354
0.142298
-0.339962
-3.35034
-4.08304
-2.02805
-2.50807
-0.515841
-1.08544
-1.35598
1.03106
0.585435
-5.66679
-6.45757
-6.31129
-18.6726
-17.6041
-19.307
-7.66409
-8.97237
-10.2669
-11.4446
-13.7279
-14.8604
-16.5314
-15.8711
-12.6979
-13.7838
-3.9123
-4.33695
-5.05584
-5.45699
-6.21557
-6.5537
-7.31441
-7.63691
-8.73386
-8.4062
-9.61487
-9.81144
-10.7125
-11.272
-12.8866
-12.3659
-13.831
-13.948
-14.6316
-15.2084
-15.0767
-20.6335
-21.0436
-19.7892
-16.1815
-15.9515
-16.9397
-16.8995
-17.2554
-18.0616
-17.6495
-19.781
-19.0373
-29.4174
-30.1365
-29.7963
-32.4019
-31.2302
-30.7654
-30.9953
-30.6789
-3.67659
-4.26111
-3.71769
-4.40395
0.510708
-0.0596902
-2.11633
-2.69113
-0.253459
-0.940926
-1.26676
1.92348
1.54966
1.57431
1.06398
-3.94604
-4.83184
-7.66701
-4.49072
-6.01428
-29.1127
-27.541
-23.5052
-22.7476
-21.3692
-16.985
-18.3779
-19.1463
-20.5974
-7.88541
-8.98666
-8.83944
-10.371
-11.7034
-13.007
-14.3087
-15.1304
-16.503
-29.8191
-30.7811
-32.3322
-30.694
-32.1288
-33.7902
-32.6394
-31.7947
-33.0575
-32.8794
-3.38851
-4.0066
-4.81713
-5.3153
-6.13871
-6.56662
-7.48044
-7.76968
-8.56983
-8.84787
-10.2389
-9.76954
-11.092
-11.2496
-12.2631
-12.8363
-12.8749
-14.2132
-13.8037
-14.9754
-15.6828
-15.631
-16.6542
-16.7342
-16.37
-21.9894
-22.9077
-25.0269
-24.164
-21.648
-20.7346
-17.6766
-17.7563
-18.3615
-18.6286
-20.6006
-19.4098
-19.0863
-25.6182
-27.6005
-27.1667
-27.7154
-27.0945
-29.1817
-29.4247
-30.0074
-32.0806
-31.1056
-31.5449
-31.2635
-31.6519
-31.7628
-32.3043
-31.9942
-31.5391
-31.6603
-2.04627
-2.55553
-1.84113
-2.54043
1.00999
0.317678
0.147281
-0.661541
-0.967109
2.7647
2.45256
2.58171
2.15468
2.24403
1.69505
-1.7026
-2.32854
-3.6455
-3.97609
-5.50845
-6.4039
-2.94096
-24.7504
-27.1937
-26.1128
-29.9358
-28.6113
-24.0381
-25.2235
-23.4109
-21.4478
-6.46772
-21.1919
-17.4103
-19.7806
-18.7422
-7.5475
-8.5243
-10.0698
-10.5597
-12.1246
-12.5729
-14.3572
-15.348
-17.1006
-30.0295
-30.8997
-29.8938
-32.8767
-32.5957
-34.1705
-32.353
-32.2086
-31.4062
-31.9425
-33.1758
-32.8704
-2.7258
-3.36992
-2.13793
-2.19547
-4.32755
-5.03579
-6.00493
-6.48486
-7.49547
-8.02853
-9.11377
-9.23191
-10.5247
-11.3715
-10.2518
-12.0103
-12.6114
-13.563
-14.0839
-14.8983
-13.5535
-14.0912
-15.5844
-15.6222
-15.6474
-16.4631
-16.3385
-16.4363
-16.4215
-17.1679
-17.2783
-17.9827
-18.3474
-22.5813
-23.568
-24.6447
-24.0204
-22.2571
-21.5687
-19.3119
-19.6169
-21.3983
-20.4241
-20.3358
-25.4583
-25.1058
-25.5129
-28.2884
-27.1454
-29.0008
-28.7758
-30.4637
-27.5595
-30.0244
-30.2922
-31.7321
-31.3443
-30.9965
-32.2426
-30.3121
-31.4078
-0.444491
-0.248739
-0.652715
0.028488
1.68524
0.927194
0.735899
0.289699
3.58234
3.34692
3.60367
3.24959
3.45459
2.96522
3.07646
2.41759
4.30771
4.16577
4.89183
4.91468
5.47961
5.33382
1.08747
-0.512235
-1.2963
-1.33785
-5.1876
-3.44422
-1.57059
-0.791697
-28.6182
-28.1948
-26.584
-22.4406
-25.6987
-24.2357
-4.90141
-6.6508
-8.42394
-22.7345
-18.5887
-21.1642
-19.9416
-10.1759
-11.2337
-12.7494
-13.2517
-14.8719
-15.4195
-17.4213
-28.9559
-32.6819
-33.3091
-32.1849
-31.212
-34.2028
-35.2121
-34.3792
-35.1926
-33.0228
-33.0063
-33.5837
-34.3229
-33.9377
-1.3128
-1.82428
-4.31545
-4.36975
-3.12927
-3.72929
-5.68921
-6.24639
-8.04774
-8.09345
-9.19068
-9.66583
-11.2702
-11.2221
-12.1076
-12.6955
-13.6613
-13.9833
-14.9073
-14.7496
-15.5
-16.1024
-17.0245
-16.6797
-17.3037
-16.9663
-17.679
-17.7143
-17.9425
-17.8729
-18.6599
-19.0001
-19.6475
-20.024
-24.1688
-22.914
-23.796
-23.2241
-22.2192
-20.6226
-21.6083
-21.0419
-21.4538
-26.3345
-24.8985
-27.4012
-25.8805
-27.8955
-28.1145
-27.4115
-31.0251
-28.8597
-32.9074
-31.0278
5.53863
5.80875
0.938884
1.14346
2.43998
1.69
1.82243
2.12672
2.42314
4.50835
4.2113
4.5156
4.12576
4.39814
3.88202
4.1293
3.45856
5.35352
5.21123
6.02194
6.03294
6.63201
6.4433
2.96338
2.53654
2.46805
0.684311
-3.0958
-1.52736
0.148139
1.39587
-24.7223
-26.7392
-27.9301
-3.17425
-5.20592
-7.07066
-9.12226
-10.9838
-22.5912
-24.4224
-18.8673
-21.6968
-13.0079
-14.2181
-16.3996
-16.8137
-19.0522
-28.8125
-31.0348
-30.5998
-33.7366
-31.2434
-32.8302
-34.6332
-34.6342
-35.352
-33.4095
-34.458
-34.6941
-35.1012
-33.9228
-1.11836
-3.10711
-2.28264
-1.92862
-2.37066
-4.073
-4.9718
-5.3534
-4.07547
-5.21393
-7.91379
-8.15605
-9.57279
-9.04677
-11.9353
-12.1799
-14.3217
-13.2923
-13.2718
-14.0632
-14.2788
-15.3028
-15.6116
-16.3176
-16.7345
-17.7492
-18.3062
-18.2088
-17.9838
-18.5692
-18.685
-18.2514
-19.5199
-19.4316
-19.4524
-19.9138
-21.3375
-24.7063
-24.2757
-23.2628
-22.0763
-21.5008
-22.9157
-22.5884
-22.0516
-25.5386
-25.4108
-27.3636
-26.4992
-27.6453
-27.7668
-27.8838
-27.582
5.546
5.92716
6.58898
6.93021
3.64191
3.01924
3.33211
4.382
4.28383
5.67177
5.39431
5.84878
5.26852
5.54023
4.88503
4.99271
6.48956
6.5966
7.33995
7.29564
8.01679
7.68691
6.15549
4.91595
4.23756
3.412
4.6552
7.653
-1.37937
0.282225
2.42149
4.09832
-1.22566
-28.5557
-26.4167
-2.96837
-5.25835
-7.44216
-9.76877
-12.8414
-14.9457
-14.4495
-21.329
-25.9663
-23.6183
-17.8029
-18.3742
-20.9807
-31.9807
-29.9543
-35.0324
-33.5785
-35.6338
-35.6666
-36.1405
-35.2611
-35.3755
-34.049
-2.96215
-2.40511
-2.71723
-3.80264
-3.92591
-3.30216
-4.04267
-5.7956
-6.84161
-8.02708
-6.40388
-8.10586
-8.09374
-8.9538
-12.9767
-12.216
-13.7255
-13.8917
-16.78
-15.0193
-14.8973
-14.1741
-16.1546
-17.6017
-17.1328
-18.3568
-18.5461
-18.3323
-19.1658
-18.3606
-19.501
-20.0019
-20.0558
-18.8725
-20.6493
-20.0527
-20.5535
-21.728
-22.7596
-25.7708
-25.0403
-21.8366
-21.9585
-22.8668
-22.4153
-25.9947
-25.8125
-27.0511
-26.227
-27.5472
-26.9706
-3.52494
-3.58835
5.33699
5.84536
6.47937
6.94265
7.66377
8.21514
5.93665
5.79169
6.73559
7.81324
8.42264
7.10369
6.82588
7.31705
6.60145
6.98202
8.0885
8.08841
8.91673
8.82791
9.67015
9.11294
9.63663
7.68106
6.26805
6.63225
10.3764
9.55553
1.01749
2.95504
5.67323
7.28189
1.34253
-0.672067
-2.80554
-32.4299
-28.7017
-5.76853
-8.8093
-12.1699
-14.4243
-18.3601
-19.7892
-23.5397
-27.3411
-30.3865
-25.0979
-37.6122
-35.1161
-38.4319
-38.7244
-39.1216
-37.9516
-38.9965
-38.1507
-4.27639
-4.01023
-5.15737
-5.22595
-6.07592
-5.42204
-6.28733
-7.71739
-8.60476
-9.70903
-8.44335
-9.70284
-13.7132
-11.0132
-12.1946
-13.1298
-14.118
-14.0927
-15.2802
-17.5616
-16.0607
-17.4376
-15.8989
-18.7115
-18.0485
-20.3104
-18.7501
-19.6383
-18.9491
-19.1242
-19.012
-20.0046
-20.3961
-20.349
-20.5155
-20.1572
-21.3193
-21.1484
-21.8482
-22.1375
-23.383
-22.3041
-24.3935
-23.4757
-23.6316
-25.208
-24.9415
-25.5714
-25.0498
-3.97006
-4.14369
-4.96341
-4.97801
4.89108
5.49144
6.07473
6.64272
7.29595
7.96294
9.50862
8.81022
4.26665
4.884
10.5917
10.208
8.37156
8.90332
8.8979
8.56615
9.14962
10.0817
9.89397
10.8808
10.6275
11.2732
10.4374
12.0952
12.5904
13.4407
12.5767
9.34938
10.382
6.2796
4.27519
10.6629
9.09138
5.24619
2.71523
-1.2467
3.59555
-4.1731
-6.89011
-37.5715
-33.8668
-11.2013
-15.7015
-22.5582
-24.401
-33.5535
-38.4802
-32.8064
-39.9273
-40.0488
-41.5769
-41.0216
-42.2997
-40.9863
-5.83031
-6.27353
-6.94007
-7.1001
-8.14659
-7.5707
-9.01228
-9.86128
-10.8735
-11.9157
-10.8855
-11.921
-14.8386
-13.8811
-13.1847
-14.1659
-17.768
-14.9692
-15.3115
-16.9446
-16.4432
-18.205
-17.5121
-17.8081
-17.834
-19.3102
-18.8081
-19.9193
-20.1045
-19.7025
-19.7767
-19.4918
-19.456
-20.4413
-20.6102
-20.6777
-21.014
-20.4431
-20.6853
-20.2822
-21.8147
-21.3273
-23.5977
-22.4416
-24.7817
-23.5263
-21.8613
-25.0627
-24.5621
-4.2569
-4.48791
-5.19066
-5.41241
-6.18008
-6.39034
5.38573
6.07018
6.62481
7.36396
10.8192
9.01122
9.97634
8.13393
3.53248
4.12772
4.52504
5.22394
2.72012
3.31085
1.86001
2.43013
12.5956
11.2462
10.866
11.8508
11.117
11.9151
12.3872
12.0621
13.2511
12.4732
12.7795
12.0869
11.9022
14.0724
15.0205
15.2623
16.5418
15.9667
13.741
13.0865
10.0372
8.11665
14.4175
13.0867
8.90791
6.51284
-0.349048
-5.24157
6.45064
2.57653
-8.62475
-14.0312
-45.383
-42.8015
-23.2491
-31.7282
-40.8433
-46.227
-39.7548
-46.3904
-44.3267
-46.422
-46.0742
-7.3509
-8.14338
-10.2962
-10.3693
-9.39563
-9.40686
-11.1458
-12.1633
-13.0783
-13.9282
-13.4555
-14.1663
-16.0159
-15.0039
-14.7012
-15.2918
-18.0248
-17.8705
-16.9288
-18.3723
-16.9263
-17.4169
-18.6633
-18.967
-18.2198
-19.4501
-19.4334
-20.6732
-20.2634
-20.2609
-20.1877
-20.1315
-20.7563
-20.7182
-20.5464
-20.7295
-20.6227
-20.4003
-21.1861
-20.5724
-21.2648
-23.6304
-21.4523
-21.7748
-25.1508
-21.6837
-7.76037
-4.21425
-4.51007
-5.2321
-5.57715
-6.32692
-6.63646
-7.32746
-4.18873
-4.47576
-3.99109
-4.35321
-3.66289
-4.06678
0.999074
1.49219
0.142175
0.564474
-0.69373
-0.320172
-1.44541
-1.16743
-3.25894
-3.70223
-2.72556
-3.19186
-2.12841
-1.9227
-2.60473
5.69238
6.54653
7.17844
8.15371
10.0917
11.0194
8.9783
3.6031
4.29661
4.67347
5.43413
2.59107
3.2498
1.52317
2.12775
10.8859
13.5837
14.9969
13.7226
14.2229
13.8424
15.395
14.7661
15.8235
14.9618
13.1415
13.3441
11.8686
16.4352
16.7983
17.1454
18.4875
18.3604
20.0832
20.0826
17.727
17.2757
14.3934
12.3283
18.9187
17.581
12.6338
9.78361
-10.5694
-1.36744
-9.0207
8.35155
2.85247
-20.538
-24.8479
-47.8461
-50.238
-35.6412
-65.9552
-55.8801
-54.227
-46.8718
-8.80609
-9.57451
-11.7077
-11.8962
-12.0014
-10.7195
-11.4631
-13.5257
-13.9988
-15.1054
-15.3907
-15.0089
-15.9801
-15.6783
-16.3753
-17.1842
-16.2446
-19.4187
-18.8705
-17.725
-18.0819
-18.8895
-18.5392
-19.5031
-19.4506
-20.3918
-20.4007
-20.5671
-20.4645
-20.9422
-20.9286
-20.8457
-21.155
-20.882
-20.966
-20.9344
-20.6338
-21.0491
-20.6352
-20.4813
-24.7727
-20.7004
-9.10882
-7.58531
-8.39451
-5.12831
-5.53787
-6.25203
-6.64438
-7.3149
-4.90247
-5.30011
-4.61846
-5.06388
-4.20722
-4.68187
0.489976
1.00562
-0.481957
-0.0620866
-1.43881
-1.06262
-2.23627
-2.01467
-3.6596
-4.17247
-3.00652
-2.78954
-3.55143
5.8694
6.89495
7.45307
8.72926
9.54673
3.47638
4.2555
4.5206
5.42499
2.19407
2.91417
0.879949
1.54871
8.93737
11.2178
9.77479
17.2367
16.9893
16.442
18.248
17.4575
18.0411
15.9723
14.3287
14.0965
12.2717
20.2373
18.9327
19.0957
21.9434
21.8785
23.9581
24.0598
22.172
22.3201
19.1249
17.0895
24.1466
22.6386
17.4231
13.8319
-13.2533
-21.8264
-2.31482
-12.1774
11.0418
3.29258
-29.0313
-30.796
-40.6529
-88.0007
-80.2992
-10.0513
-10.6907
-11.6278
-12.7171
-13.4416
-13.2092
-13.2466
-12.6682
-16.0344
-16.6188
-17.2011
-17.2165
-16.4493
-17.7417
-17.053
-17.8943
-18.2164
-18.5565
-18.2488
-18.0669
-19.7448
-19.4136
-18.8825
-19.0864
-19.7505
-19.4553
-20.152
-20.4293
-20.6367
-20.6582
-21.1634
-20.998
-21.0315
-21.1514
-21.3846
-21.3436
-21.3909
-21.318
-19.9946
-21.5773
-20.8144
-30.1281
-9.04627
-9.89737
-7.73386
-8.62818
-5.97541
-6.44473
-7.29657
-5.77306
-6.28785
-5.31409
-5.89551
-4.68254
-5.26901
-0.257299
0.22319
-1.33347
-0.914511
-2.38939
-2.01881
-3.21985
-3.03677
-4.02561
-3.85249
-4.61227
5.77067
7.01177
7.64118
7.18927
3.0027
3.87731
4.05503
5.09787
1.49491
2.2784
0.00929431
0.793857
9.28666
7.83992
11.6011
10.0793
17.459
17.423
21.0635
20.316
19.6537
18.7278
21.3904
21.0708
12.415
16.8165
15.2383
14.13
23.3719
23.2516
25.8025
25.524
27.0454
27.9102
26.5125
28.0006
24.0217
22.3175
28.7486
27.5198
23.6451
19.7144
21.495
-18.9638
-28.7834
13.9344
-6.13854
-17.8455
-32.5719
-28.7019
-13.8465
-10.2176
-11.0398
-11.7335
-12.7205
-13.5998
-15.9007
-14.4733
-15.3576
-17.6898
-17.2414
-18.7442
-18.8104
-17.2581
-18.5729
-19.0887
-19.2023
-19.3572
-18.9376
-19.2443
-19.4967
-19.3922
-19.3497
-20.2188
-20.02
-19.7583
-19.8365
-20.1559
-21.0415
-20.5716
-20.7584
-21.0867
-21.1023
-21.2512
-21.2449
-21.0494
-21.1656
-21.846
-21.1457
-9.09969
-9.81848
-7.19986
-7.74147
-8.63993
-6.59998
-7.23968
-5.91545
-6.57312
-5.18291
-5.85526
-1.20416
-0.725831
-2.43393
-1.98712
-3.54354
-3.24011
-4.37023
-4.22861
-5.05769
7.10406
5.32721
6.21048
5.8263
2.31137
3.19651
4.16702
3.38149
0.711832
1.5283
-0.99957
-0.214807
9.06672
7.08276
5.74485
11.3899
9.6388
17.9138
20.6873
19.5912
20.457
24.9452
23.5899
24.7843
22.6693
22.9451
14.9541
12.45
17.6615
16.3087
19.2542
27.607
27.1384
30.8484
33.3006
30.3942
31.1643
31.7612
32.4589
33.4303
28.7478
29.7143
29.8619
25.4787
27.0684
25.7092
21.2514
-21.7819
-39.9733
-36.0732
-15.8438
-10.2823
-14.3938
-14.8894
-11.308
-11.5961
-12.4473
-12.9848
-13.6764
-14.3172
-16.185
-15.9619
-17.5483
-17.2556
-19.7548
-19.7986
-18.7267
-18.9658
-20.1939
-20.0082
-19.3662
-19.3417
-20.0047
-20.0885
-20.1298
-20.6582
-20.518
-20.3385
-20.5562
-20.92
-20.7971
-21.0954
-21.0312
-20.9958
-20.972
-21.0146
-21.0534
-10.2833
-8.01025
-8.60267
-9.36349
-9.66736
-7.30783
-8.02642
-6.50803
-7.21212
-5.65089