/*--------------------------------*- C++ -*----------------------------------*\
  =========                 |
  \\      /  F ield         | OpenFOAM: The Open Source CFD Toolbox
   \\    /   O peration     | Website:  https://openfoam.org
    \\  /    A nd           | Version:  8
     \\/     M anipulation  |
\*---------------------------------------------------------------------------*/
FoamFile
{
    version     2.0;
    format      ascii;
    class       volVectorField;
    location    "6000";
    object      U;
}
// * * * * * * * * * * * * * * * * * * * * * * * * * * * * * * * * * * * * * //

dimensions      [0 1 -1 0 0 0 0];

internalField   nonuniform List<vector> 
4109
(
(10.1198 0.000520017 0)
(10.1223 0.000554828 3.80165e-21)
(10.124 0.00250642 0)
(10.1218 -0.000210498 -8.19736e-21)
(10.1242 0.00150685 3.94232e-22)
(10.1269 0.00237526 6.58433e-23)
(10.1278 0.00251615 -2.42457e-22)
(10.1334 0.00401902 0)
(10.1288 0.00239063 0)
(10.123 0.000391499 -2.81878e-21)
(10.125 0.00129468 3.42521e-21)
(10.1338 0.00314686 1.51366e-21)
(10.1364 0.00797745 2.23595e-21)
(10.1368 0.00429749 -1.0039e-22)
(10.1346 0.00331452 2.34246e-21)
(10.13 0.00222569 -8.78764e-22)
(10.1243 0.000620746 5.41838e-22)
(10.1267 0.00160593 6.36936e-23)
(10.1356 0.00323659 0)
(10.1404 0.0036986 -3.19287e-21)
(10.159 0.0081674 1.83788e-21)
(10.1427 0.00842397 -5.04334e-21)
(10.1466 0.00601203 -5.56961e-22)
(10.1312 0.0022956 -2.20068e-21)
(10.1285 0.00175798 8.96548e-21)
(10.1256 0.000841943 3.03417e-21)
(10.1329 -0.00212119 0)
(10.1362 -0.00228473 8.95739e-22)
(10.1404 -0.00217463 -6.43561e-23)
(10.136 0.00326156 0)
(10.1419 0.00324081 0)
(10.1465 0.00465077 3.87473e-21)
(10.221 -2.48088e-05 -1.01469e-21)
(10.1507 0.00705255 -7.08873e-21)
(10.1489 0.00602245 0)
(10.132 0.00233868 -1.58302e-22)
(10.1279 0.00153971 -8.90535e-21)
(10.1266 0.000752532 -4.94829e-21)
(10.1328 -0.00217082 -1.43047e-21)
(10.1249 -0.00161758 0)
(10.1421 -0.00304181 -1.31659e-22)
(10.1392 -0.00333597 4.87845e-22)
(10.1418 -0.00893353 -1.53146e-22)
(10.1365 0.00334564 -2.22657e-21)
(10.1421 0.00324068 0)
(9.48073 0.0260948 7.08687e-22)
(10.135 -0.000372459 3.79856e-22)
(10.1489 0.00467073 -1.38844e-22)
(10.1496 0.00403362 6.71176e-22)
(10.2167 -0.00105421 4.62029e-21)
(10.1535 0.00533896 4.24516e-21)
(10.1308 0.00203308 -1.30051e-22)
(10.1292 0.00185217 -8.64659e-21)
(10.1281 0.00102509 1.94546e-21)
(10.1329 -0.00250428 -9.36305e-22)
(10.1266 -0.00186495 0)
(10.119 -0.000357827 0)
(10.1416 -0.00527459 1.35712e-22)
(10.143 -0.00417534 1.51041e-22)
(10.1389 -0.00347861 0)
(10.2401 -0.00276651 -1.44122e-22)
(8.88599 0.0142841 0)
(10.1362 0.00330659 -7.59881e-21)
(10.1427 0.00324354 0)
(10.1487 0.00440081 5.965e-22)
(10.2461 -0.000858341 -3.86217e-22)
(9.74636 0.0280933 1.58143e-20)
(10.15 0.00375865 0)
(10.1508 0.00631932 -9.50293e-22)
(10.2301 -0.000417197 -5.81439e-22)
(10.1298 0.00127669 2.60999e-21)
(10.1309 0.00226353 5.76721e-21)
(10.1355 0.00387987 0)
(10.1319 0.00140904 1.18029e-20)
(10.1331 0.00226756 -1.76127e-20)
(10.1339 -0.00284882 9.44334e-22)
(10.1284 -0.0019563 0)
(10.1266 -0.0017647 0)
(10.1205 -0.00046727 0)
(10.2207 0.00675962 1.69112e-22)
(10.1468 -0.00464909 7.82064e-22)
(10.1416 -0.00486516 -7.24511e-22)
(10.1451 -0.00361139 8.64109e-23)
(10.1395 -0.00389943 0)
(10.3543 0.0186123 1.21453e-21)
(10.258 8.43899e-06 0)
(9.37364 -0.0429345 0)
(9.21596 0.0310598 -3.08509e-20)
(8.84228 0.0202476 -1.04674e-21)
(10.1348 0.00273587 2.97189e-21)
(10.1371 0.00329318 7.6019e-21)
(10.1432 0.00334082 0)
(10.1492 0.00450069 -3.12616e-22)
(10.1506 0.00351476 -1.94623e-22)
(10.2875 -0.00495664 0)
(9.99272 0.0122725 0)
(10.1483 0.00594659 0)
(10.2206 0.000547799 3.07559e-22)
(10.1372 0.00394626 6.21128e-22)
(10.1343 0.00322144 -1.16156e-20)
(10.1318 0.00249028 1.32261e-20)
(10.1365 0.00384269 8.36544e-21)
(10.1383 0.00452543 5.32851e-21)
(10.1347 0.00274236 6.20952e-21)
(10.1342 0.00122741 2.42407e-21)
(10.1347 -0.00333374 3.94189e-22)
(10.1305 -0.00263748 3.49249e-22)
(10.1263 -0.00154503 0)
(10.1212 -0.000625894 2.82433e-21)
(10.2091 0.00182169 1.51357e-22)
(10.3295 0.00916249 0)
(10.1451 -0.00537333 -3.16405e-22)
(10.1455 -0.00428973 -3.09583e-23)
(10.1454 -0.00403438 0)
(10.1399 -0.00421121 0)
(9.01874 -0.0380156 -1.43675e-20)
(10.1706 -0.0132117 -1.0838e-21)
(9.90986 -0.0362082 1.72517e-20)
(9.56752 0.0395138 -7.20195e-21)
(9.04844 0.0114445 1.1e-20)
(8.75678 -0.00319163 8.60855e-21)
(10.2989 0.00205928 1.38131e-22)
(10.1362 0.00331152 -1.35731e-20)
(10.1394 0.00391141 -2.34823e-21)
(10.1441 0.00368444 -7.50483e-22)
(10.1495 0.00479675 0)
(10.1514 0.00387463 6.21777e-22)
(10.1472 0.00611458 -1.98279e-21)
(10.0767 0.00439822 3.37588e-21)
(10.3091 -0.00162209 0)
(10.2078 0.000912879 2.3311e-22)
(10.1404 0.00521825 6.88217e-21)
(10.1373 0.00405977 -4.32261e-21)
(10.1387 0.00472974 -8.18176e-21)
(10.1409 0.00582867 5.06575e-22)
(10.1372 0.00155849 0)
(10.1375 0.00379772 -4.92329e-21)
(10.1355 -0.00386711 -7.71424e-22)
(10.1307 -0.0028184 0)
(10.1268 -0.00171626 1.06585e-21)
(10.1225 -0.000761079 -2.82405e-21)
(10.2107 -0.00126783 -2.22289e-23)
(10.3261 -0.00306418 0)
(10.1429 -0.00663661 0)
(10.1466 -0.00444271 -2.96729e-22)
(10.1457 -0.00421215 1.48479e-22)
(10.1404 -0.00470162 0)
(9.13902 -0.0346338 -8.22443e-21)
(9.85907 -0.039122 5.35465e-22)
(9.08638 0.0095851 0)
(9.64727 0.0186209 -3.78428e-21)
(8.76041 0.0225333 0)
(10.2683 -0.00130357 -1.28975e-22)
(10.1399 0.0043804 1.08193e-20)
(10.1395 0.0039164 2.34806e-21)
(10.145 0.00418098 7.13556e-22)
(10.1502 0.00562315 2.30404e-21)
(10.1514 0.0044073 1.08151e-21)
(10.1468 0.00696523 1.2136e-21)
(10.2021 0.00308287 -3.55172e-23)
(10.1214 0.00211391 -3.71557e-24)
(10.3213 -0.00265512 -2.32955e-22)
(10.1441 0.00619576 1.93093e-21)
(10.1402 0.00452014 0)
(10.1416 0.0062695 -3.14519e-22)
(10.1449 0.00726016 -1.66611e-21)
(10.1426 0.0064011 -2.0829e-22)
(10.141 0.00538595 0)
(10.1408 0.00177678 0)
(10.1365 -0.00457618 2.9634e-22)
(10.132 -0.00341935 1.15423e-22)
(10.1281 -0.0020901 -2.3008e-21)
(10.1232 -0.000650239 -4.76576e-22)
(10.2068 -0.00458738 -1.76286e-23)
(10.3265 -0.0041421 0)
(10.1409 -0.0076811 6.04223e-22)
(10.1483 -0.00456028 -1.45629e-22)
(10.1457 -0.00489662 -5.88115e-22)
(10.1414 -0.00561877 -3.61174e-22)
(9.77438 -0.029645 -5.58905e-22)
(8.88279 -0.0128441 0)
(9.70551 0.0164663 4.8723e-24)
(9.09611 0.00600643 4.68572e-22)
(8.7618 0.0207099 1.06547e-22)
(10.286 0.00324672 1.74621e-22)
(10.1456 0.00443714 -2.48479e-23)
(10.1462 0.00485657 2.48397e-23)
(10.1519 0.00621653 -1.19674e-21)
(10.1479 0.00758427 -1.94619e-21)
(10.1549 0.00410088 -8.60789e-22)
(10.1906 0.00623469 1.03692e-21)
(10.1074 0.00497629 -2.30157e-22)
(10.3172 0.000769651 1.33344e-22)
(10.1469 0.00535825 -9.29e-22)
(10.1477 0.00636416 4.87356e-22)
(10.146 0.00829237 -4.89932e-22)
(10.1487 0.00754933 -6.71718e-22)
(10.1477 0.00932282 4.86016e-22)
(10.146 0.0077037 2.43883e-22)
(10.1421 0.005015 1.84642e-21)
(10.145 0.00083922 0)
(10.1378 -0.00529824 -6.31958e-22)
(10.1332 -0.0038866 3.06458e-22)
(10.1295 -0.00251421 1.9738e-21)
(10.1248 -0.000894304 3.73127e-22)
(10.1929 -0.00629344 -3.40293e-22)
(10.3171 -0.00338868 -5.82623e-22)
(10.1398 -0.00787059 3.70028e-22)
(10.1495 -0.00534642 1.66385e-23)
(10.1463 -0.00650697 8.60898e-22)
(10.1428 -0.00687192 0)
(9.76129 -0.0191665 -1.30483e-21)
(8.86912 -0.0063868 6.30723e-22)
(9.07552 -0.00156998 0)
(9.68096 0.0117779 5.74654e-23)
(8.75445 0.0197075 -7.33366e-22)
(10.313 0.0116542 1.86463e-22)
(10.1528 0.00532425 0)
(10.1531 0.00566676 -9.0969e-22)
(10.1566 0.00420149 -2.99912e-21)
(10.1737 0.0130449 2.18476e-21)
(10.1067 0.0038765 2.73239e-24)
(10.3164 0.00248593 -4.78169e-22)
(10.1533 0.00704381 1.08632e-21)
(10.1536 0.00847668 2.02621e-21)
(10.1501 0.00887997 2.00932e-21)
(10.1543 0.0101994 -1.38634e-21)
(10.152 0.0101484 -1.02258e-21)
(10.1498 0.0104218 0)
(10.1473 0.00743681 -2.0753e-21)
(10.146 0.00574272 -2.12155e-21)
(10.1494 0.000840007 0)
(10.1392 -0.00592424 -2.90163e-21)
(10.1346 -0.00423419 7.59909e-21)
(10.1312 -0.00288175 3.37616e-21)
(10.1263 -0.000970074 -6.3677e-22)
(10.1769 -0.00777509 -2.23908e-22)
(10.3019 -0.00406085 1.64766e-22)
(10.1509 -0.00737671 -8.12813e-22)
(10.1405 -0.00801566 1.06312e-21)
(10.1407 -0.00631336 0)
(10.1483 -0.00889143 0)
(10.1446 -0.00788975 0)
(9.8231 -0.0166476 2.8461e-22)
(8.87941 -0.00898398 4.80345e-22)
(9.68286 0.00519088 5.41242e-23)
(9.07975 -0.0089578 6.50104e-23)
(8.76071 0.0212345 -6.44726e-23)
(10.3285 0.0174035 -4.80669e-22)
(10.1584 0.00307834 0)
(10.1566 0.00473247 4.73098e-22)
(10.1652 0.0165017 7.37551e-22)
(10.1063 0.00380931 -1.11364e-21)
(10.3181 0.00804865 5.72161e-22)
(10.1571 0.00685023 -3.28738e-22)
(10.1584 0.00753107 -2.71809e-22)
(10.1553 0.0119705 -3.84498e-22)
(10.1598 0.010095 0)
(10.1567 0.0139869 0)
(10.1542 0.0113785 -3.16058e-22)
(10.1523 0.0113613 2.68211e-21)
(10.1505 0.00816156 -1.10995e-20)
(10.1503 0.00585831 0)
(10.1538 0.000958085 0)
(10.1372 -0.00503484 4.09535e-21)
(10.1344 -0.00405528 -5.55493e-21)
(10.1283 -0.00111049 2.36719e-21)
(10.1395 -0.00567199 4.0995e-21)
(10.1526 -0.0104445 1.88046e-21)
(10.279 -0.00504727 -3.34796e-21)
(10.1513 -0.00930123 -3.98575e-23)
(10.1429 -0.00689982 0)
(10.1464 -0.00854566 0)
(10.1508 -0.0100444 -5.70289e-22)
(8.88507 -0.00588882 2.92963e-22)
(9.86047 -0.0142524 5.09438e-22)
(9.08964 -0.02493 8.00977e-22)
(9.6873 -0.00846953 -7.69189e-22)
(8.76628 0.0185061 0)
(10.3381 0.027247 1.06687e-21)
(10.0158 -0.017477 1.28639e-19)
(10.1675 0.015855 0)
(10.1636 0.00996028 -2.24479e-22)
(10.1129 0.00559816 -1.49657e-20)
(10.3296 0.00657683 -4.23881e-21)
(10.1529 0.0129991 1.44344e-21)
(10.1558 0.011451 -4.38168e-22)
(10.1611 0.012049 2.80752e-21)
(10.154 0.0166685 4.33401e-22)
(10.1632 0.0145054 -8.33868e-23)
(10.1585 0.0158283 -1.09678e-22)
(10.1568 0.0125629 0)
(10.1552 0.0122743 -6.00987e-21)
(10.1543 0.0089453 2.24526e-20)
(10.1549 0.00632942 0)
(10.1556 0.00431111 6.96558e-21)
(10.1572 -0.000650293 0)
(10.129 -0.000615719 0)
(10.1351 -0.00352129 2.40256e-21)
(10.132 -0.00246947 -3.65123e-21)
(10.1405 -0.00555851 2.06935e-22)
(10.1444 -0.00711121 1.59652e-21)
(10.1386 -0.014525 0)
(10.2596 -0.0088837 1.46509e-21)
(10.1558 -0.0112635 1.24306e-21)
(10.1481 -0.00901802 6.00211e-22)
(10.1532 -0.0104022 0)
(9.88878 -0.00620453 1.22863e-21)
(8.86757 -0.000143073 -6.84875e-22)
(9.10584 -0.0298229 4.09415e-20)
(9.74106 -0.0150061 -2.81309e-20)
(8.78121 0.0160074 3.21159e-20)
(10.3336 0.029973 -9.97966e-22)
(10.0116 -0.00270927 -2.13043e-19)
(10.0142 -0.0198766 5.5605e-20)
(10.0108 -0.0138445 -6.25178e-20)
(10.022 -0.0211837 -8.28297e-20)
(10.0172 -0.00651321 1.8889e-19)
(10.028 -0.0266718 7.34146e-20)
(9.97294 0.0171367 2.76902e-20)
(10.3405 -0.0152698 1.93994e-20)
(10.2798 -0.0294901 -1.82436e-20)
(10.1918 -0.000130389 -1.46989e-21)
(10.2033 0.00179198 -6.06974e-21)
(10.158 0.0114165 -2.76867e-22)
(10.1574 0.0177935 0)
(10.1617 0.0209173 -1.63723e-21)
(10.1652 0.0160296 0)
(10.161 0.0176585 0)
(10.1612 0.00788459 4.34486e-20)
(10.1599 0.0137815 1.09201e-21)
(10.1588 0.0130602 1.87473e-20)
(10.1589 0.00966086 -1.89045e-20)
(10.1589 0.00369038 -6.73939e-21)
(10.1583 -0.00141291 0)
(10.1604 0.000788499 0)
(10.1565 -0.00255333 1.25637e-20)
(10.1319 -0.00168236 -5.35813e-22)
(10.1355 -0.00321049 -7.5169e-21)
(10.1426 -0.00595225 -4.80823e-21)
(10.1462 -0.00745575 -5.1716e-21)
(10.1497 -0.00936029 -7.51819e-22)
(10.1389 -0.0198082 0)
(10.2597 -0.0109696 -2.96946e-21)
(10.1589 -0.0122311 -1.11897e-21)
(10.1552 -0.0102535 -1.64186e-23)
(9.89172 0.000590807 7.66628e-21)
(8.76559 0.00648363 5.64888e-22)
(8.97733 0.0202263 2.6059e-20)
(10.3267 0.0113255 8.99328e-22)
(10.0008 -0.00197604 -5.61875e-20)
(10.0042 -0.00162243 5.62387e-20)
(10.007 -0.00903336 0)
(10.0193 -0.0246191 -2.27606e-20)
(10.0112 -0.0246262 8.56195e-20)
(10.0069 -0.0176191 7.23041e-20)
(10.1498 -0.00528978 0)
(10.1551 -0.010982 7.01732e-21)
(10.1567 -0.0250658 5.61902e-21)
(10.0258 -0.00782173 -2.87987e-21)
(10.0314 -0.0193447 -1.91034e-20)
(10.0242 -0.0120516 4.80663e-20)
(10.0341 -0.026946 -6.54e-21)
(10.0258 -0.0304484 2.77706e-20)
(9.51769 0.0553129 -6.07976e-20)
(10.3523 -0.0333549 -4.63925e-21)
(10.3281 0.00757106 2.73307e-20)
(10.273 -0.00107428 -1.00001e-20)
(10.1691 0.0134009 -1.60628e-22)
(10.1652 0.00724919 1.73159e-21)
(10.1565 0.022522 -1.28517e-20)
(10.1693 0.0209631 0)
(10.1676 0.0183156 0)
(10.164 0.0197429 -1.07862e-21)
(10.1639 0.0102034 0)
(10.1635 0.0149999 0)
(10.1629 0.0135804 -6.40303e-21)
(10.1657 0.00202537 0)
(10.1646 0.00461044 -3.15002e-20)
(10.1608 -0.00498927 -7.59008e-20)
(10.1647 -0.0015835 5.13364e-20)
(10.1657 -0.0165319 0)
(10.1735 -0.033956 1.58607e-20)
(10.1346 -0.00158131 7.96744e-21)
(10.1383 -0.00393377 -4.09923e-22)
(10.1454 -0.00665159 -2.00028e-20)
(10.148 -0.00789035 1.12932e-20)
(10.1514 -0.00974613 2.12611e-22)
(10.1569 -0.0104504 -1.6268e-22)
(10.1441 -0.0206609 8.39435e-22)
(10.2491 -0.0144717 1.05056e-21)
(10.161 -0.011726 -4.70861e-22)
(9.93291 -0.0197254 -1.19551e-20)
(8.57836 0.00817599 1.8403e-20)
(10.0004 -0.00286387 -1.16442e-19)
(10.003 -0.00950292 4.95521e-20)
(10.0163 -0.0308121 -2.81084e-20)
(10.0092 -0.0286105 1.95105e-21)
(10.0052 -0.0203311 -1.38026e-19)
(10.1443 -0.0173774 -1.2634e-20)
(10.1378 -0.00784253 1.07217e-20)
(10.1448 -0.0341532 0)
(10.184 -0.0562421 -3.00938e-20)
(10.1624 -0.0451721 -1.65385e-20)
(10.0401 -0.0164032 1.68822e-22)
(10.0392 -0.0109794 -2.70734e-20)
(10.0414 -0.0308639 -1.92617e-22)
(10.0335 -0.035387 -6.32018e-21)
(10.0237 -0.0376757 -2.92122e-20)
(8.65195 0.0442601 -4.51006e-20)
(9.83376 0.103513 1.30203e-20)
(10.3641 0.041599 -1.31256e-20)
(10.3117 0.0226645 1.22229e-21)
(10.1779 0.0168081 4.54627e-21)
(10.1679 0.0100139 2.79836e-21)
(10.1714 0.00907417 9.22734e-21)
(10.1591 0.0225874 -2.4775e-21)
(10.17 0.0231615 2.72937e-21)
(10.1702 0.0206233 0)
(10.1676 0.022336 -8.9162e-21)
(10.1674 0.0134663 -1.03079e-20)
(10.1678 0.0161208 0)
(10.1736 0.0019424 -2.22792e-20)
(10.1722 0.00572747 -1.11208e-20)
(10.1733 -0.00329969 4.90825e-20)
(10.1709 -0.00946109 -1.831e-20)
(10.1811 -0.0231528 -1.12578e-20)
(10.1951 -0.041164 4.73448e-20)
(10.1379 -0.00203338 -4.81038e-21)
(10.1416 -0.00475112 8.92565e-21)
(10.1632 -0.0128343 2.21928e-21)
(10.1506 -0.00864112 6.59791e-21)
(10.1495 -0.00850859 0)
(10.153 -0.0103071 1.78036e-21)
(10.1584 -0.010714 9.90758e-23)
(10.1539 -0.0103361 0)
(10.1536 -0.0178322 -1.8228e-21)
(10.1495 -0.0180282 -1.54243e-21)
(10.2878 -0.00594086 1.34324e-21)
(10.0371 -0.0552421 3.25382e-20)
(10.0008 0.00226678 -1.47029e-20)
(10.0003 -0.00385945 0)
(10.0021 -0.0120287 3.14975e-20)
(10.0142 -0.0363933 -7.01697e-21)
(10.0068 -0.0331614 0)
(10.0036 -0.0233639 1.04924e-20)
(10.2207 -0.0691123 -5.37977e-20)
(10.1206 -0.0105301 -9.75947e-23)
(10.1008 -0.0129383 0)
(10.1302 -0.0240941 -4.83507e-21)
(10.1345 -0.0432712 -1.2298e-21)
(10.0575 -0.0100884 0)
(10.0784 -0.00945848 0)
(10.1675 -0.0701431 1.45751e-20)
(10.148 -0.0552152 -1.3483e-22)
(10.051 -0.0260782 1.04514e-19)
(10.0432 -0.0389014 4.99357e-20)
(10.0332 -0.0448675 1.27551e-20)
(10.0211 -0.0446464 0)
(8.4573 -0.00199406 3.55675e-20)
(9.41743 0.108928 0)
(10.2835 0.0579754 9.74223e-22)
(10.3183 0.0251731 -1.23566e-21)
(10.1959 0.0180921 6.12722e-21)
(10.1722 0.0124952 1.18997e-20)
(10.177 0.0102293 0)
(10.1604 0.0240928 3.77229e-21)
(10.1718 0.0254207 -7.99806e-22)
(10.1732 0.0234652 -3.46175e-21)
(10.1721 0.0251109 -1.67895e-21)
(10.1729 0.0168216 2.00859e-22)
(10.1839 0.00153158 -1.28864e-20)
(10.1807 0.00643248 1.44543e-20)
(10.1855 -0.00516088 1.34024e-20)
(10.1849 -0.0134603 -1.21553e-20)
(10.201 -0.0269631 -4.74039e-20)
(10.228 -0.0455917 3.37466e-24)
(10.1416 -0.00257229 -2.67522e-21)
(10.151 -0.0071711 -2.9484e-20)
(10.1464 -0.00598585 1.85085e-20)
(10.1726 -0.0183102 -2.09371e-21)
(10.1648 -0.012914 -6.34996e-22)
(10.1547 -0.0110893 -1.68913e-21)
(10.1566 -0.0118309 0)
(10.1598 -0.0112436 1.30072e-21)
(10.1569 -0.0120216 8.49956e-21)
(10.1589 -0.0128553 0)
(9.66487 -0.0878241 -8.18675e-20)
(9.3843 -0.0906163 1.46977e-20)
(10.1402 -0.00817921 0)
(10.3265 0.00275214 5.27701e-21)
(10.0004 0.00279582 1.4391e-19)
(10.0022 0.00844801 -1.37003e-19)
(10.0046 0.00103962 0)
(10.0003 -0.00456837 -1.95989e-20)
(10.0014 -0.0137746 7.19452e-20)
(10.0115 -0.0425307 5.93767e-21)
(10.0038 -0.0352122 0)
(10.0013 -0.024528 -1.65673e-19)
(10.2051 -0.0913283 5.37719e-20)
(10.2663 -0.0674214 2.26347e-20)
(10.1189 -0.0326688 -3.54596e-21)
(10.1015 -0.0267223 0)
(10.1186 -0.0514744 4.91343e-21)
(10.0819 -0.0232857 0)
(10.065 -0.0273024 -8.73489e-20)
(10.1471 -0.0803709 1.5345e-20)
(10.1315 -0.0602306 3.83038e-21)
(10.0554 -0.0402303 -2.01087e-20)
(10.0446 -0.0518593 -1.17356e-20)
(10.0301 -0.0533112 4.04706e-20)
(10.0165 -0.0520285 -3.83673e-20)
(8.16079 -0.0232053 5.03891e-21)
(9.11398 0.0768965 3.35601e-21)
(9.05082 -0.0678009 6.74059e-21)
(10.2356 0.0382494 -2.24836e-21)
(10.3408 0.0272779 2.04064e-21)
(10.2081 0.0225448 -2.3367e-21)
(10.1787 0.0164825 0)
(10.1848 0.0145587 -1.92883e-20)
(10.1621 0.0273233 -4.46633e-21)
(10.1735 0.0282446 7.47136e-21)
(10.1779 0.0266337 1.48256e-21)
(10.1772 0.0273273 1.0966e-20)
(10.1908 0.010601 1.9282e-20)
(10.1963 0.00463865 0)
(10.2005 -0.00371273 0)
(10.2024 -0.0143335 0)
(10.2291 -0.0241532 0)
(10.2668 -0.0398481 -4.67435e-20)
(10.3058 -0.0634215 -7.31587e-20)
(10.1458 -0.00304208 2.67509e-21)
(10.1519 -0.00551636 8.24924e-21)
(10.1666 -0.0137626 2.29561e-21)
(10.1658 -0.0139439 1.74784e-22)
(10.1612 -0.0122735 -1.56232e-21)
(10.1627 -0.0135229 -1.82136e-21)
(10.165 -0.0149071 0)
(10.1587 -0.0117133 0)
(10.1617 -0.0137999 0)
(10.1705 -0.00448121 0)
(10.3663 -0.0137621 4.00124e-20)
(10.2982 -0.0295311 -3.04351e-20)
(10.0006 0.00484459 3.59087e-20)
(10.0023 0.0108675 -2.8046e-20)
(10.0049 0.0140296 -6.97929e-20)
(10.0137 0.00793708 0)
(10.0073 0.0109485 0)
(9.99992 -0.0048973 5.48435e-21)
(10.0009 -0.0153981 4.30885e-20)
(10.0078 -0.0459588 -1.27225e-21)
(10.0001 -0.0396324 -2.96746e-20)
(9.9994 -0.0301309 2.68448e-19)
(10.1824 -0.107193 1.46137e-22)
(10.2518 -0.0954579 4.5601e-20)
(10.3319 -0.104506 -7.18555e-20)
(10.0714 -0.0447502 -6.55366e-20)
(10.1023 -0.0508468 2.08007e-20)
(10.0892 -0.0406314 3.00004e-20)
(10.125 -0.0862476 0)
(10.1146 -0.0631409 -1.98893e-21)
(10.0586 -0.0588286 -1.6202e-20)
(10.0414 -0.0623461 -4.45287e-20)
(10.0231 -0.062373 2.25441e-20)
(10.0111 -0.0568721 -1.42437e-20)
(10.3285 -0.0677999 0)
(8.03797 -0.0145039 -4.72545e-21)
(8.96723 0.0593602 2.24366e-21)
(8.85641 -0.0373052 -5.12666e-21)
(10.2084 0.0304276 7.02225e-22)
(10.3521 0.0290941 -6.63921e-22)
(10.2155 0.0307922 0)
(10.1841 0.0284729 0)
(10.1922 0.0277744 1.98103e-20)
(10.1773 0.032142 0)
(10.1638 0.0352924 -7.2729e-23)
(10.1836 0.0299161 -1.43934e-21)
(10.201 0.0245155 -1.97988e-20)
(10.2101 0.0182403 0)
(10.2187 0.00815636 0)
(10.2256 -0.00593354 0)
(10.2611 -0.0151309 0)
(10.2944 -0.0339392 3.65586e-20)
(10.3373 -0.0485498 2.13694e-19)
(10.3657 -0.0676021 1.72e-20)
(10.1492 -0.00212417 0)
(10.1557 -0.00581056 -8.35074e-21)
(10.1675 -0.0131822 0)
(10.1667 -0.0146831 5.86667e-21)
(10.1676 -0.0170143 -1.53507e-20)
(10.1681 -0.0192315 4.69701e-21)
(10.1679 -0.0166749 -1.60858e-20)
(10.1627 -0.0123165 2.5978e-21)
(10.1643 -0.013549 0)
(10.167 -0.0177189 2.37489e-20)
(10.1792 -0.0113397 0)
(10.2687 0.017656 1.66371e-20)
(10.0006 0.00602926 -6.63622e-20)
(10.024 0.00792236 2.01955e-20)
(10.0034 0.0164471 0)
(10.0063 0.020435 -1.2e-21)
(10.0114 0.0147328 5.68456e-20)
(9.99982 -0.00454565 0)
(9.99906 -0.0147283 -4.79586e-20)
(10.0024 -0.0501862 3.29919e-20)
(9.99526 -0.0388614 0)
(9.99592 -0.029738 0)
(9.99821 -0.0211518 -1.81976e-21)
(10.1556 -0.117108 -2.40813e-21)
(10.3757 -0.1433 1.00533e-19)
(10.2208 -0.121577 -2.29476e-21)
(10.2941 -0.13221 -7.36833e-20)
(10.105 -0.0877131 5.44123e-20)
(10.0758 -0.0604854 0)
(10.0949 -0.0660479 -2.46035e-20)
(10.0558 -0.0714855 0)
(10.0311 -0.0740576 4.99535e-21)
(10.0152 -0.0694489 4.30474e-20)
(10.0038 -0.0620508 -1.71756e-20)
(10.2778 -0.0441637 0)
(7.97166 -0.0143204 2.79918e-21)
(8.87343 0.0583226 -3.64011e-21)
(8.7724 -0.0338371 -7.44298e-22)
(10.1706 0.0247899 9.09815e-22)
(10.3546 0.0321507 1.32651e-21)
(10.2175 0.0455113 5.99087e-22)
(10.2025 0.0342584 2.15751e-20)
(10.1921 0.0326825 -1.04746e-20)
(10.1839 0.0375364 1.25035e-21)
(10.1676 0.0486909 -1.34479e-21)
(10.2142 0.0323673 -2.85321e-20)
(10.2268 0.0271709 1.69519e-20)
(10.2517 0.00459954 0)
(10.2397 0.018543 0)
(10.2847 -0.00719289 -1.3068e-20)
(10.3523 -0.00680665 7.7743e-20)
(10.3228 -0.0104913 0)
(10.3868 -0.0273257 -2.16575e-19)
(10.4095 -0.0981858 -1.3893e-19)
(10.1534 -0.00199062 4.58358e-21)
(10.1592 -0.00539333 -2.48189e-21)
(10.1663 -0.0119331 1.79079e-20)
(10.1676 -0.0190281 4.06845e-21)
(10.1709 -0.017856 1.33298e-20)
(10.1709 -0.0223895 -1.93834e-21)
(10.1721 -0.0177083 3.79822e-22)
(10.1683 -0.0143506 -2.20005e-21)
(10.1694 -0.0195291 8.63981e-21)
(10.1625 -0.0250433 0)
(10.243 -0.0113602 -2.50766e-22)
(10.0002 0.00576093 -4.06276e-20)
(10.0016 0.0153462 8.28465e-20)
(10.0388 0.00743844 -2.92969e-20)
(10.0282 0.0195756 -5.3344e-20)
(10.0054 0.0232414 3.2688e-20)
(10.0107 0.0237562 -2.45228e-20)
(10.0205 0.0216419 5.21267e-20)
(9.99812 -0.0115158 0)
(9.99964 -0.0036992 0)
(9.99562 -0.0495867 -1.67868e-20)
(9.99021 -0.037369 -5.5762e-20)
(9.99263 -0.0285455 1.70853e-20)
(9.99557 -0.0198361 1.86163e-21)
(10.1294 -0.120858 -1.73407e-20)
(10.4297 -0.194636 -1.73252e-19)
(10.1871 -0.141312 -4.57856e-21)
(10.3358 -0.183464 2.64213e-20)
(10.2546 -0.170499 3.00077e-20)
(10.0896 -0.0917748 -4.40353e-20)
(10.0717 -0.0773553 -1.30868e-20)
(10.106 -0.120145 2.43621e-20)
(10.0438 -0.0869669 -7.25984e-20)
(10.0215 -0.0847374 0)
(10.0054 -0.0762386 -1.34153e-20)
(9.99427 -0.0625239 -3.59164e-21)
(10.3034 -0.0456941 5.30731e-22)
(7.93226 -0.022472 0)
(8.78226 0.0615714 1.09844e-21)
(8.69504 -0.0299745 0)
(10.1348 0.0194135 -1.38054e-21)
(10.3541 0.0365237 -6.07656e-22)
(10.2088 0.0612134 1.07347e-22)
(10.2077 0.0498859 0)
(10.1941 0.0439232 8.86837e-22)
(10.1761 0.0610192 1.56079e-20)
(10.2255 0.043959 0)
(10.2399 0.038029 3.35875e-20)
(10.2713 0.0133147 -4.37228e-21)
(10.256 0.0289803 -3.86647e-20)
(10.3098 0.00232091 -2.53068e-21)
(10.3587 0.0308346 9.62057e-20)
(10.3963 0.00754484 -4.42917e-20)
(10.4345 -0.0478843 1.61716e-19)
(10.4674 -0.138504 3.97954e-20)
(10.157 -0.00187143 0)
(10.1639 -0.00511567 0)
(10.1708 -0.011022 -2.43162e-20)
(10.1725 -0.0147176 6.48385e-22)
(10.1684 -0.023122 -9.37598e-21)
(10.1722 -0.020554 0)
(10.1739 -0.0264456 -2.40557e-21)
(10.1747 -0.0191558 -3.81598e-21)
(10.1736 -0.0203868 3.51958e-21)
(10.1691 -0.0270895 4.29797e-21)
(10.2608 -0.01366 1.0121e-22)
(10.0001 0.00434242 3.33698e-20)
(10.0004 0.0131238 8.37283e-20)
(10.0018 0.0206621 -1.22439e-19)
(10.0037 0.0245462 -4.4401e-20)
(10.057 0.0073367 0)
(10.0413 0.0194804 3.41627e-20)
(10.0335 0.0301869 -4.12023e-20)
(10.0089 0.0290995 -1.43164e-20)
(10.0168 0.0302422 0)
(10.0272 0.0310994 -8.76682e-20)
(10.0774 0.00695246 -4.24818e-21)
(9.99704 -0.00801791 5.01685e-20)
(9.99954 -0.00228635 0)
(9.99985 0.00370279 0)
(9.98793 -0.0473229 -2.07493e-20)
(9.98541 -0.0315893 4.39622e-20)
(9.99237 -0.0154223 -5.40672e-20)
(9.98822 -0.0235147 0)
(10.1493 -0.155348 -2.77982e-22)
(10.3836 -0.243809 1.49854e-20)
(10.2114 -0.194256 5.89903e-21)
(10.2897 -0.220187 3.10479e-22)
(10.0817 -0.115746 3.31748e-20)
(10.0606 -0.0989321 5.99553e-20)
(10.1123 -0.160305 0)
(9.98325 -0.0602447 4.40718e-20)
(10.0332 -0.103703 -7.78752e-22)
(10.0094 -0.0952438 0)
(9.99234 -0.0781899 -1.65812e-20)
(10.2869 -0.0421611 -9.94484e-23)
(7.90013 -0.0266546 4.37501e-22)
(8.69856 0.0680721 -6.74559e-22)
(8.64883 -0.0269152 -1.28425e-21)
(10.2081 0.0708785 0)
(10.1219 0.00704256 1.06446e-22)
(10.3478 0.039638 -1.67997e-22)
(10.2062 0.0673023 -2.32062e-20)
(10.1901 0.0704557 3.65403e-21)
(10.2487 0.0628221 -7.63148e-21)
(10.2332 0.0613109 2.83378e-20)
(10.2906 0.0373761 -5.48188e-20)
(10.3239 0.0460162 -1.00516e-19)
(10.2711 0.0408177 7.15825e-20)
(10.3827 0.0484064 0)
(10.4462 0.0086884 9.6945e-20)
(10.496 -0.0760162 0)
(10.1591 -0.0016068 4.32201e-21)
(10.1714 -0.00411511 4.46493e-20)
(10.1755 -0.00927129 0)
(10.1774 -0.0143942 -3.76976e-22)
(10.1783 -0.0210447 -1.05023e-20)
(10.1698 -0.0293994 0)
(10.1746 -0.0226149 0)
(10.1776 -0.0295739 -3.52651e-22)
(10.1794 -0.0213332 1.01775e-20)
(10.1701 -0.034229 1.09015e-21)
(10.2637 -0.0191965 -1.02239e-21)
(10.1563 0.00049848 -5.25871e-21)
(10.1517 0.00160348 0)
(9.99937 0.0130882 1.34769e-20)
(9.99925 0.0213932 0)
(10.0029 0.0287724 4.66396e-20)
(10.0068 0.0324832 1.43571e-20)
(10.0576 0.0203722 0)
(10.0441 0.0315115 5.7328e-20)
(10.0346 0.036902 3.78329e-21)
(10.0144 0.0367298 0)
(10.0243 0.0380315 0)
(10.0758 0.0219139 -4.52704e-22)
(10.0983 0.00594293 -4.09022e-21)
(10.1178 0.00349114 0)
(10.1334 0.000152953 4.65613e-20)
(10.1468 0.00504508 -4.61178e-20)
(9.99927 0.000643268 0)
(9.99572 -0.00261363 0)
(9.99966 0.00199737 0)
(9.99823 0.0115384 0)
(9.9716 -0.0514679 -2.1586e-20)
(9.98002 -0.0395293 5.48687e-20)
(9.98184 -0.0249558 0)
(9.98895 -0.00927118 5.35134e-20)
(10.1641 -0.213938 2.06693e-20)
(10.3307 -0.287306 2.31961e-20)
(10.2387 -0.25195 -2.11988e-20)
(10.0514 -0.123416 2.83488e-21)
(10.0774 -0.139386 -6.30511e-22)
(10.0969 -0.191834 1.04667e-20)
(10.1189 -0.229942 -3.66813e-20)
(9.96074 -0.0655842 0)
(9.97673 -0.0760368 -2.64697e-21)
(10.0186 -0.118605 0)
(9.99122 -0.0998419 0)
(10.3062 -0.0435596 0)
(8.60748 0.073784 -1.72408e-22)
(7.85603 -0.0309217 -2.26171e-22)
(8.71538 -0.0394526 -1.0178e-20)
(10.3331 0.0514118 0)
(10.1662 -0.00309571 -4.15784e-21)
(10.2187 0.095697 -3.99126e-21)
(10.2414 0.0727549 -1.39932e-20)
(10.3203 0.0856145 0)
(10.2789 0.0802036 0)
(10.3615 0.0806291 -3.89826e-20)
(10.4432 0.0643131 4.56687e-21)
(10.5129 -0.00724571 2.47408e-20)
(10.1693 0.000870167 -5.33594e-20)
(10.1803 -0.00708369 0)
(10.183 -0.0128369 1.44449e-20)
(10.1842 -0.0208485 3.78002e-22)
(10.1848 -0.023085 1.82843e-21)
(10.1726 -0.0367519 -1.15359e-21)
(10.1786 -0.0255391 1.52545e-21)
(10.1826 -0.0324654 0)
(10.2663 -0.0251339 2.92886e-22)
(10.172 -0.041636 -7.20691e-22)
(10.1568 0.0133448 2.2303e-20)
(10.1669 0.00522848 8.72752e-21)
(10.1612 0.0098456 -2.84213e-21)
(9.99798 0.0212394 1.64184e-20)
(9.99972 0.0292945 -3.19313e-20)
(10.005 0.0372194 -1.61251e-20)
(10.0118 0.0417022 1.36778e-20)
(10.0586 0.0335563 0)
(10.0451 0.0409631 2.21298e-20)
(10.0334 0.0450264 -3.57902e-21)
(10.0219 0.0456667 1.12439e-21)
(10.0746 0.0364142 -1.72792e-20)
(10.0962 0.0270845 1.47486e-20)
(10.0917 0.0378131 -7.62894e-21)
(10.1582 0.0227942 1.35619e-20)
(10.1155 0.0254715 -1.18259e-23)
(10.1475 0.0238615 -1.15719e-21)
(10.1332 0.0238485 4.07021e-21)
(9.99665 0.00852351 0)
(9.99262 0.00362642 0)
(9.99564 0.0196122 6.10827e-20)
(9.98541 0.00243563 -1.07264e-19)
(9.96077 -0.0417356 -5.68198e-20)
(9.97242 -0.0311418 2.55083e-20)
(9.98089 -0.0125363 1.70535e-20)
(9.94677 -0.0509491 0)
(10.1844 -0.27624 0)
(10.2717 -0.324598 1.50451e-20)
(10.0367 -0.155621 -2.35318e-20)
(10.0557 -0.210088 3.15693e-20)
(10.0613 -0.168781 3.07766e-20)
(10.0653 -0.248084 -1.58364e-20)
(10.1285 -0.29354 6.14612e-21)
(9.96895 -0.096288 -4.4482e-20)
(9.94791 -0.0813681 5.29445e-20)
(9.99176 -0.129635 -3.86114e-20)
(10.3892 -0.0544021 2.73596e-21)
(8.51381 0.103516 9.0084e-21)
(7.78544 -0.0326924 -4.77381e-20)
(8.7238 -0.0980927 -5.95335e-21)
(10.3602 0.060897 1.68188e-20)
(10.2567 0.0168118 -1.83157e-20)
(10.2521 0.108545 4.19768e-20)
(10.2629 0.0819246 -2.31983e-20)
(10.3417 0.118036 1.84084e-19)
(10.4263 0.118269 3.11601e-19)
(10.5174 0.0634027 -2.355e-19)
(10.1814 -0.00176078 0)
(10.1886 -0.00957987 -3.02936e-20)
(10.1911 -0.0191086 -1.08976e-22)
(10.1918 -0.0239259 -1.18448e-20)
(10.1893 -0.0342179 1.1872e-21)
(10.1782 -0.0446743 3.86113e-22)
(10.1845 -0.0294257 5.85144e-22)
(10.2331 -0.0325631 -3.02995e-22)
(10.1693 -0.0499278 0)
(10.1672 0.0145994 0)
(10.1816 0.00471329 0)
(9.99304 0.0283348 1.01954e-19)
(9.99684 0.0297949 -1.68162e-20)
(10.001 0.0385775 4.98587e-20)
(10.0089 0.0477073 0)
(10.0193 0.052644 -4.35532e-20)
(10.059 0.0454557 -6.47664e-21)
(10.0451 0.051034 -1.45654e-21)
(10.0316 0.0546908 1.48468e-20)
(10.0744 0.0484699 1.10193e-20)
(10.0909 0.0553906 1.72289e-20)
(10.1066 0.0473746 -6.0984e-21)
(10.1684 0.0239692 5.94987e-21)
(10.1638 0.0307933 1.44335e-20)
(10.1218 0.0443109 1.16968e-21)
(10.1538 0.0350652 -2.50926e-21)
(10.1395 0.0399787 -1.30603e-20)
(9.99258 0.0164947 5.8141e-20)
(9.98735 0.011732 7.49421e-20)
(9.98909 0.0248708 -2.21177e-19)
(9.97703 0.000854156 -1.78268e-20)
(9.93091 -0.0667617 1.6456e-20)
(9.95032 -0.0236325 -2.77481e-19)
(9.96442 -0.012287 8.90446e-20)
(9.9341 -0.026041 0)
(9.98672 0.0317073 4.49144e-20)
(10.2074 -0.35311 -3.24818e-21)
(9.99985 -0.171009 0)
(10.0114 -0.202576 6.75119e-20)
(10.0204 -0.249373 -3.91887e-20)
(10.0698 -0.303681 0)
(10.1383 -0.371493 -4.23833e-21)
(9.94632 -0.16217 -9.44517e-20)
(9.95314 -0.129253 3.23183e-20)
(9.92724 -0.119698 -1.34332e-19)
(10.4167 -0.0956161 7.51032e-21)
(8.32329 0.223347 3.30659e-21)
(7.7836 -0.0421687 2.99284e-19)
(8.31891 -0.228069 -1.70426e-19)
(10.3275 0.149789 -1.76676e-21)
(10.2874 0.143086 -1.60326e-19)
(10.3538 0.14816 8.15e-20)
(10.3953 0.167504 -1.84399e-19)
(10.5062 0.136364 -7.75467e-21)
(10.1937 -0.00418876 1.59475e-20)
(10.1984 -0.0150157 -3.41112e-23)
(10.2007 -0.0227372 1.69362e-20)
(10.1986 -0.034523 -1.12457e-21)
(10.185 -0.0540405 -7.51572e-22)
(10.1927 -0.0333156 1.85161e-21)
(10.2111 -0.0519784 1.66491e-22)
(10.1762 -0.0604688 2.00243e-20)
(10.1818 0.0133093 0)
(10.1974 0.00374226 -1.82025e-20)
(9.99125 0.0370835 -3.71862e-20)
(9.9965 0.0391301 -3.33132e-20)
(10.0037 0.0512511 0)
(10.0162 0.0614263 -2.77862e-20)
(10.0295 0.0631346 1.58669e-20)
(10.0593 0.0565633 6.22826e-21)
(10.0439 0.0635524 0)
(10.0759 0.0615503 -3.11107e-21)
(10.0945 0.0631575 -1.73645e-21)
(10.1133 0.0627312 4.44098e-21)
(10.1812 0.0243736 -1.03931e-20)
(10.1751 0.0349711 0)
(10.1314 0.0589188 -5.25721e-22)
(10.1642 0.0447282 -1.05508e-21)
(10.1492 0.0525909 -7.19996e-21)
(9.9791 0.0114762 -3.2478e-20)
(9.98208 0.0238826 0)