/*--------------------------------*- C++ -*----------------------------------*\
  =========                 |
  \\      /  F ield         | OpenFOAM: The Open Source CFD Toolbox
   \\    /   O peration     | Website:  https://openfoam.org
    \\  /    A nd           | Version:  8
     \\/     M anipulation  |
\*---------------------------------------------------------------------------*/
FoamFile
{
    version     2.0;
    format      ascii;
    class       volVectorField;
    location    "0.093";
    object      U;
}
// * * * * * * * * * * * * * * * * * * * * * * * * * * * * * * * * * * * * * //

dimensions      [0 1 -1 0 0 0 0];

internalField   nonuniform List<vector> 
656
(
(0.743372 0.0565316 -9.65481e-25)
(0.927889 0.0140691 1.86667e-24)
(0.954788 -0.00127375 0)
(-0.0910749 0.118994 2.40002e-23)
(0.556742 0.0977245 1.12098e-23)
(0.841242 0.000939743 0)
(-0.0571798 0.0672276 -4.93901e-23)
(-0.0145962 0.018846 9.85104e-24)
(0.968227 -0.00015084 0)
(-0.000504604 0.138601 -2.37828e-24)
(-0.00304957 0.193131 -7.83495e-23)
(-0.117738 0.172053 0)
(0.376006 0.139834 1.00526e-23)
(0.715019 0.00930684 0)
(0.890989 0.00127448 -1.70667e-22)
(0.906567 0.000583101 4.77898e-23)
(0.00104045 0.0823432 9.70507e-24)
(0.00137427 0.0267217 0)
(0.971852 -7.6339e-05 -3.43357e-23)
(0.913662 0.000298558 -1.43719e-22)
(-0.0123884 0.0928732 7.71104e-23)
(-0.00523408 0.0628721 0)
(-0.0239222 0.125114 1.33361e-24)
(-0.00789615 0.242543 1.53982e-22)
(-0.136115 0.223437 -1.67657e-22)
(0.210343 0.18042 -2.26587e-23)
(0.577674 0.0245875 0)
(0.8007 0.00637692 2.66449e-22)
(0.829494 0.00303221 -8.91623e-23)
(-0.00144234 0.0356645 0)
(-0.000151565 0.0114448 0)
(0.916986 0.000158365 5.13467e-23)
(0.973373 -4.69463e-05 -3.66607e-23)
(0.842959 0.00161742 1.95816e-22)
(0.849424 0.000810487 -5.18089e-23)
(0.854031 6.35005e-05 -1.08889e-22)
(-0.00677975 0.0608904 -1.05381e-22)
(-0.00280708 0.0409241 1.7071e-23)
(-0.0137926 0.0825097 -1.88325e-22)
(-0.0408484 0.158564 -1.577e-22)
(-0.01671 0.28282 1.66501e-22)
(-0.143742 0.269547 -4.7771e-24)
(0.0686489 0.217917 4.55154e-22)
(0.433182 0.0474137 0)
(0.696558 0.0162323 0)
(0.739381 0.00802648 -3.6982e-22)
(-0.000821629 0.0230279 -5.40252e-24)
(-0.000128818 0.00732298 0)
(0.854943 -0.000883153 1.20144e-22)
(0.919453 2.8457e-05 -2.78104e-23)
(0.974008 -2.02053e-05 4.92918e-24)
(0.75977 0.00435531 0)
(0.769765 0.0021855 0)
(0.776842 0.00015203 -1.06666e-22)
(0.778388 -0.00237205 4.59706e-22)
(0.763627 -0.00604322 0)
(-0.0103745 0.0366041 2.00131e-22)
(-0.00502145 0.0257396 2.95145e-22)
(-0.00202819 0.0165171 -2.87513e-22)
(-0.0250269 0.104803 -1.85263e-22)
(-0.0193443 0.0489367 5.84786e-22)
(0.28681 0.0796721 -1.32799e-22)
(0.57847 0.0319868 1.75137e-22)
(0.635201 0.0165802 -5.20767e-22)
(-0.000553535 0.00884742 4.53702e-23)
(-6.70889e-05 0.00256179 6.0905e-23)
(0.844861 -0.00224246 -2.5466e-22)
(0.92 -0.00014638 8.54502e-23)
(0.974687 1.29041e-05 5.47827e-24)
(0.726768 -0.015198 -1.16792e-23)
(0.662692 0.00911926 0)
(0.676457 0.00466457 1.93316e-22)
(0.686386 0.00038644 2.04132e-22)
(0.688971 -0.00481305 -8.82331e-22)
(0.669711 -0.0125431 2.27279e-22)
(-0.00839881 0.0139349 8.88421e-22)
(-0.00405364 0.0091381 -6.83449e-24)
(-0.00182771 0.00550513 0)
(-0.000643611 0.00295303 1.0577e-22)
(0.447786 0.0558281 0)
(0.516952 0.0303682 6.66113e-22)
(-8.94477e-05 0.00127332 -1.00135e-22)
(5.53251e-05 0.00024139 -3.08628e-23)
(0.604786 -0.0240906 4.71813e-22)
(0.820259 -0.00592586 1.49694e-22)
(0.914484 -0.000374945 0)
(0.97503 4.19891e-05 -5.28356e-23)
(0.619973 -0.0302311 -2.88771e-22)
(0.468209 -0.0472383 7.26193e-22)
(0.251479 -0.190757 -8.79081e-22)
(0.550825 0.0170805 0)
(0.568151 0.00874882 4.66271e-23)
(0.58124 0.000992598 -1.45194e-22)
(0.58554 -0.00871514 5.11886e-22)
(0.562579 -0.0231808 -8.69611e-22)
(-0.0147911 0.00626419 3.73776e-22)
(-0.00924714 0.0030667 -3.98853e-22)
(-0.00537223 0.00139791 -1.97735e-22)
(-0.00279645 0.000480314 3.91348e-22)
(-0.00116583 4.38413e-05 4.713e-23)
(-0.000203188 -6.20621e-05 -2.84976e-23)
(-0.136728 -0.250241 5.90066e-23)
(0.411944 -0.147966 -6.13836e-23)
(0.732778 -0.00901641 -7.95845e-22)
(0.901186 -0.00112449 0)
(0.973747 0.000109572 0)
(0.499722 -0.0539485 5.52146e-22)
(0.325513 -0.0810145 -2.7733e-22)
(0.106283 -0.230036 1.02582e-22)
(-0.141409 -0.298198 1.38428e-21)
(-0.0465803 0.0112551 0)
(-0.0340209 0.00583953 1.86863e-22)
(-0.0235914 0.00285792 -6.59976e-22)
(-0.0149878 0.00114531 1.84041e-22)
(-0.00792709 0.000287612 -4.38527e-23)
(-0.00212802 2.17916e-05 -2.72268e-23)
(-0.00754385 -0.28903 0)
(-0.120665 -0.194926 0)
(0.582914 -0.103403 4.88166e-22)
(0.850386 -0.000878695 -3.99584e-23)
(0.970606 0.000203289 -1.0304e-22)
(-0.0155569 -0.33292 -1.64648e-21)
(-0.0760015 0.0100106 0)
(-0.0568623 0.00552753 1.9315e-22)
(-0.0403702 0.00276358 -1.41143e-24)
(-0.0262671 0.00117179 9.54886e-23)
(-0.0142712 0.000360379 -4.48734e-23)
(-0.0041164 7.18022e-05 0)
(-0.0276218 -0.164275 -5.51166e-22)
(-0.00296273 -0.233229 0)
(-0.094997 -0.136206 5.08316e-22)
(0.75789 -0.0597746 0)
(0.956555 0.00135216 7.64116e-23)
(-0.0466779 -0.205096 0)
(-0.0980845 0.00828978 0)
(-0.0741665 0.00460899 1.20078e-22)
(-0.0531752 0.00234379 -3.48152e-22)
(-0.0349417 0.0010281 1.12646e-22)
(-0.0192397 0.000345413 5.03483e-23)
(-0.00578431 8.89843e-05 -1.68739e-23)
(-0.015655 -0.119027 2.82625e-22)
(-0.0145372 -0.123352 0)
(-0.000248169 -0.169217 -4.45518e-22)
(-0.0605237 -0.0776122 4.30418e-22)
(0.931395 -0.0147218 0)
(-0.0284336 -0.148594 0)
(-0.107005 0.00724212 1.53155e-22)
(-0.0810007 0.00408768 -1.47862e-22)
(-0.0581645 0.00207796 1.43073e-22)
(-0.0382911 0.000905992 -2.73887e-22)
(-0.0211551 0.000304644 3.76654e-22)
(-0.00650422 7.86168e-05 -5.02185e-23)
(-0.0133574 -0.0678609 2.43769e-22)
(-0.00771819 -0.0890988 -5.22016e-22)
(-0.00596345 -0.0840667 1.52074e-22)
(0.00181257 -0.100771 -4.6198e-22)
(-0.014189 -0.0214027 1.30993e-23)
(-0.024115 -0.0868537 0)
(-0.0154616 -0.0452166 -5.49846e-23)
(-0.107964 0.0078089 -1.88582e-22)
(-0.0816243 0.0049289 7.60119e-22)
(-0.058694 0.0026444 -7.25764e-22)
(-0.0387754 0.00113992 0)
(-0.0215135 0.000351542 0)
(-0.00671227 7.27361e-05 -5.50899e-24)
(-0.00849443 -0.0350826 1.17253e-22)
(-0.00666787 -0.0497938 3.44446e-24)
(-0.00302972 -0.0605437 3.97954e-22)
(-0.00125803 -0.0475669 -1.49542e-22)
(0.00233743 -0.0310267 0)
(-0.00873861 -0.0196311 8.91155e-22)
(-0.0632763 0.00409153 8.291e-22)
(-0.0414414 0.00257072 -8.57305e-22)
(-0.0227754 0.000908329 0)
(-0.0070082 0.000157904 -7.76625e-24)
(-0.00480665 -0.0146295 -2.36315e-22)
(-0.00418804 -0.0254855 -9.16752e-23)
(-0.00273025 -0.0332936 1.89004e-22)
(-0.000643011 -0.0342513 -1.29325e-22)
(0.000182382 -0.0143651 4.94292e-23)
(-0.00447453 -0.00526448 0)
(-0.00270606 0.00320098 -1.02407e-21)
(-0.0505274 0.00118009 0)
(-0.0176845 0.000393822 -2.71407e-23)
(-0.00152205 0.000804199 0)
(-0.00238154 -0.00358816 -2.40559e-22)
(-0.00234518 -0.0102341 -4.59275e-22)
(-0.00172137 -0.0168634 -6.24874e-23)
(-0.000724385 -0.0186277 1.27155e-22)
(7.65245e-05 -0.0106535 -4.96195e-23)
(-0.00108024 -0.000901938 2.08811e-21)
(-0.00130628 0.00154799 2.17906e-21)
(-0.00310786 0.0036939 7.02071e-23)
(-0.000132306 0.00198945 -4.81421e-22)
(-0.000749152 0.00104832 -9.82511e-25)
(-0.00111841 -0.00225134 1.24587e-22)
(-0.000958379 -0.00653695 3.71986e-22)
(-0.000484009 -0.00935173 7.62147e-24)
(-6.56822e-05 -0.0058394 -2.27909e-23)
(-0.0001474 -0.00257548 -1.88365e-24)
(-0.000453312 -0.00141138 -1.74693e-21)
(-0.000547695 0.000678921 -5.26919e-22)
(-0.00136142 0.00157884 0)
(-0.00319375 0.00914419 1.51722e-21)
(0.000389214 0.00151004 -2.58748e-22)
(-4.01076e-06 0.00176499 2.56504e-22)
(-0.000314495 0.0010589 1.28438e-22)
(-0.000440224 -0.00126607 0)
(-0.000272129 -0.00350616 -1.2192e-22)
(-6.47753e-05 -0.00293409 1.71268e-23)
(0.000229809 -0.00282415 8.27434e-22)
(1.29913e-05 -0.0024184 3.33751e-22)
(-0.000162187 -0.00146221 1.96694e-22)
(-0.000173916 0.000193302 5.36033e-23)
(-0.000334946 0.000545861 -6.14605e-23)
(-0.000459818 0.00212034 1.0924e-21)
(0.000310244 0.000534777 1.08136e-21)
(0.00024839 0.00126936 -4.0476e-22)
(2.98064e-05 0.00143273 -2.63976e-22)
(-0.000107179 0.000883865 -1.28486e-22)
(-0.000115845 -0.000584153 0)
(-3.96767e-05 -0.00106226 -1.12742e-23)
(0.000528004 -0.00205868 0)
(0.000185019 -0.00240451 -2.86303e-22)
(4.71884e-05 -0.00200885 -9.86502e-22)
(-3.77034e-05 -0.0012145 3.2149e-22)
(-2.21858e-05 -2.83877e-05 -3.58209e-22)
(-1.24998e-05 1.19594e-05 9.65593e-24)
(0.000532068 0.000192058 -4.69797e-22)
(0.000171516 0.000398928 7.16204e-22)
(0.000139516 0.000980706 -6.92982e-22)
(2.76355e-05 0.00103605 1.32346e-22)
(-1.72685e-05 0.000583956 0)
(-1.10014e-05 -0.00014197 1.11475e-23)
(0.00038891 -0.000698797 0)
(0.000316796 -0.00169625 5.50365e-22)
(0.000115032 -0.00187531 7.1644e-22)
(3.78167e-05 -0.00146585 9.39679e-22)
(8.23613e-06 -0.000791218 -3.338e-22)
(9.7796e-06 -5.50473e-05 -2.20475e-23)
(0.00120544 0.000277312 -5.60813e-22)
(0.000378419 0.000104431 0)
(8.3708e-05 0.000273309 5.14328e-22)
(6.48701e-05 0.000678681 0)
(1.68365e-05 0.000614519 0)
(6.22755e-06 0.000211529 0)
(0.000718709 -0.000234861 6.27186e-22)
(0.000209885 -0.000524536 -5.69271e-22)
(0.000168864 -0.0012877 -5.60027e-22)
(5.82732e-05 -0.00130852 -4.18078e-22)
(2.38481e-05 -0.000872133 -4.34759e-22)
(1.31874e-05 -0.000279335 1.31222e-23)
(0.00168598 0.000145658 0)
(0.000961243 0.000159186 1.40554e-22)
(0.000249778 5.15526e-05 0)
(3.23395e-05 0.000167283 1.98727e-27)
(2.19695e-05 0.00038523 0)
(8.67171e-06 0.000196659 -8.98034e-23)
(0.00183421 -2.67073e-05 0)
(0.00156418 -0.000258263 -5.66059e-22)
(0.000522186 -0.000131924 -1.5799e-22)
(9.94278e-05 -0.00036012 2.91849e-22)
(7.56687e-05 -0.000877447 -4.14964e-22)
(2.45368e-05 -0.000750063 -1.31464e-22)
(1.22929e-05 -0.000280629 9.15686e-23)
(0.00135347 8.23593e-05 -1.88764e-23)
(0.000715512 8.24774e-05 -2.10202e-22)
(0.000149283 2.00353e-05 0)
(6.31733e-06 8.30126e-05 -1.0821e-22)
(5.51707e-06 0.000112642 9.05926e-23)
(0.0014707 -1.8043e-05 2.09892e-24)
(0.00124727 -0.000151882 6.35707e-22)
(0.000352534 -6.60375e-05 -4.72315e-27)
(3.77783e-05 -0.000221163 1.34931e-25)
(2.46163e-05 -0.00049053 -2.65275e-22)
(9.49852e-06 -0.000226844 8.36337e-23)
(0.00101778 4.25598e-05 1.4857e-22)
(0.000483174 3.63791e-05 1.02542e-22)
(7.34194e-05 3.85853e-06 -1.26143e-22)
(-1.22137e-06 1.91395e-05 2.30053e-23)
(0.00110588 -1.07257e-05 2.0944e-24)
(0.000931269 -8.128e-05 -1.40607e-22)
(0.000215847 -2.61376e-05 4.54169e-22)
(7.22514e-06 -0.000110373 -2.1277e-22)
(6.01135e-06 -0.000139091 3.40373e-26)
(0.000696127 1.89755e-05 0)
(0.000271389 1.1983e-05 1.13807e-22)
(1.73679e-05 -1.10289e-06 7.96668e-23)
(0.000756897 -5.78881e-06 0)
(0.000631535 -3.70988e-05 -2.057e-22)
(0.000108926 -5.34263e-06 3.95909e-22)
(-1.4638e-06 -2.5581e-05 4.39588e-23)
(0.000398333 6.50675e-06 -9.70975e-25)
(8.26827e-05 2.82891e-06 -1.43009e-22)
(0.000433632 -2.79687e-06 9.69712e-25)
(0.000356542 -1.29659e-05 -1.14033e-22)
(2.67354e-05 1.18708e-06 1.12934e-22)
(0.000128974 1.65486e-06 4.33798e-23)
(0.000140684 -1.23318e-06 0)
(0.000109502 -3.58841e-06 -1.09967e-23)
(-0.142805 0.304015 2.22384e-21)
(-0.0269628 0.258916 5.09922e-22)
(-0.0419225 0.128296 0)
(-0.0753956 0.189539 2.78623e-21)
(-0.0629118 0.19421 -2.94436e-21)
(-0.073022 0.268242 0)
(-0.0373497 0.311078 0)
(-0.0980452 0.353175 -1.02569e-21)
(-0.0849302 0.314173 0)
(-0.0388409 0.266567 -1.88531e-21)
(0.152159 0.126701 4.23773e-21)
(-0.0955074 0.278837 0)
(-0.0338099 0.0636954 -3.65697e-22)
(-0.0560702 0.10525 0)
(-0.0162072 0.0192656 -3.81809e-21)
(-0.0385986 0.0469828 3.90722e-21)
(-0.0831657 0.121715 -2.27027e-21)
(-0.114796 0.159415 0)
(-0.0954014 0.203483 0)
(-0.119101 0.24024 6.18362e-22)
(-0.10878 0.295516 0)
(-0.0974965 0.289536 1.95869e-21)
(-0.0152742 0.19448 2.36968e-21)
(0.0946772 0.155501 -5.71835e-21)
(0.302808 0.0912268 1.1234e-21)
(-0.149953 0.235269 -5.90024e-22)
(-0.140543 0.252469 0)
(-0.0215698 0.0120701 -3.15874e-21)
(-0.0491873 0.028652 8.65326e-22)
(-0.0607813 0.052156 7.20346e-22)
(-0.0913818 0.081873 2.30837e-21)
(-0.121538 0.0806729 -4.44499e-21)
(-0.167505 0.115469 -3.93327e-21)
(-0.159415 0.156947 -3.00645e-21)
(-0.184491 0.185495 5.63124e-21)
(-0.130934 0.208746 -1.64175e-21)
(-0.0600027 0.184083 -1.71406e-21)
(0.0433092 0.128478 0)
(0.387488 0.0504158 -5.74685e-21)
(0.190368 0.106437 0)
(0.423925 0.0298138 0)
(0.243698 0.0593233 4.83684e-21)
(-0.20681 0.172881 0)
(-0.178848 0.179871 0)
(-0.0108471 -0.277365 6.03709e-21)
(-0.146114 -0.33037 0)
(0.386544 -0.0835115 0)
(0.436602 0.0148338 -1.97023e-22)
(0.273597 0.0341753 0)
(0.269521 -0.0944411 0)
(0.45653 -0.0376443 1.1832e-21)
(0.458428 0.00179151 3.69632e-21)
(0.296579 0.00855278 0)
(0.320021 -0.0442477 0)
(0.473854 -0.0152629 0)
(0.325096 -0.0149193 -3.75314e-21)
(-0.0639559 0.0225517 1.14952e-21)
(-0.0974188 0.0360227 -1.44531e-21)
(-0.120521 0.0485927 4.75467e-21)
(-0.173508 0.0548068 0)
(-0.202303 0.0851152 0)
(-0.231692 0.0954736 -3.1048e-21)
(-0.249597 0.120086 -2.36308e-21)
(-0.152318 0.139204 0)
(0.0674796 0.0804191 3.34717e-21)
(-0.0352852 0.118035 0)
(0.151948 0.0435658 0)
(0.00479656 0.0682076 -3.61974e-21)
(-0.267033 0.106391 7.84726e-21)
(-0.228673 0.113314 -2.31886e-21)
(-0.0112094 -0.264237 -3.40716e-21)
(0.172354 -0.13773 7.67052e-21)
(0.147214 -0.156983 -6.00212e-21)
(-0.114827 -0.387007 1.70474e-21)
(-0.0771427 -0.329037 -3.71048e-21)
(-0.0361738 -0.360387 2.43751e-22)
(0.0477271 -0.183754 -6.36435e-21)
(0.0511356 -0.153934 2.08615e-21)
(0.14973 -0.110152 3.22715e-21)
(0.134004 0.0100572 0)
(0.0258895 0.0381277 0)
(0.0865148 -0.0943344 -3.55657e-21)
(0.189491 -0.0572682 0)
(0.101097 -0.0463002 -3.31618e-21)
(0.200538 -0.0211012 3.02412e-21)
(0.0615365 -0.009775 4.60933e-21)
(-0.0973006 0.0161603 1.65291e-21)
(-0.141108 0.0248625 0)
(-0.16821 0.034327 0)
(-0.213582 0.040108 3.28341e-21)
(-0.245118 0.0588379 0)
(-0.274295 0.0598914 8.2624e-21)
(-0.294493 0.0759781 -7.06126e-21)
(-0.108257 0.0542711 0)
(-0.132025 0.0690206 -5.67658e-21)
(-0.222718 0.0874093 1.15629e-20)
(-0.195122 0.0400584 0)
(-0.292502 0.0752979 -7.47357e-21)
(-0.306172 0.0691413 -3.98623e-21)
(-0.0856965 -0.315049 0)
(-0.0705387 -0.248577 7.72744e-21)
(-0.0719273 -0.243755 0)
(-0.0639321 -0.32305 -5.27585e-22)
(-0.0899586 -0.326035 4.14361e-22)
(-0.102162 -0.242421 -7.93624e-21)
(-0.0603385 -0.188507 -7.29073e-21)
(-0.09036 -0.162641 9.69494e-21)
(-0.0371758 -0.116158 2.98966e-21)
(-0.103642 -0.0834655 -3.91714e-21)
(-0.0500304 -0.0527866 0)
(-0.0772195 -0.0178732 -3.18618e-21)
(-0.172126 0.0108965 0)
(-0.123471 0.0131841 0)
(-0.16778 0.0198123 -1.28101e-21)
(-0.198094 0.0256512 -5.01979e-21)
(-0.232519 0.0320191 4.30489e-21)
(-0.261246 0.0426992 -1.53211e-21)
(-0.279707 0.044865 -1.96661e-21)
(-0.307512 0.0567947 6.22748e-21)
(-0.277592 0.0468819 -6.94643e-21)
(-0.30105 0.0619531 8.46946e-21)
(-0.264018 0.0155264 0)
(-0.298747 0.0397601 -1.19023e-21)
(-0.321167 0.0618837 0)
(-0.31436 0.0565667 0)
(-0.0467887 -0.174296 -1.23693e-20)
(-0.0894346 -0.248998 4.26681e-21)
(-0.10988 -0.258995 5.15499e-21)
(-0.121752 -0.288645 -7.1046e-22)
(-0.137726 -0.259309 6.5544e-22)
(-0.172232 -0.210031 -7.46635e-21)
(-0.174968 -0.170587 0)
(-0.195617 -0.112958 -9.32941e-21)
(-0.281277 0.0178949 -4.39168e-21)
(-0.237521 -0.0819602 6.78736e-21)
(-0.273983 -0.018405 2.80128e-21)
(-0.135494 0.0115885 4.51752e-21)
(-0.294668 0.0530492 2.69733e-21)
(-0.173484 0.017924 -3.22747e-21)
(-0.198936 0.023282 -2.79434e-21)
(-0.226295 0.0312886 -6.05195e-21)
(-0.261507 0.0397396 1.35422e-21)
(-0.270897 0.043944 -3.43183e-21)
(-0.294277 0.0460237 -2.6992e-21)
(-0.318238 0.060772 6.72778e-22)
(-0.313226 0.0515545 1.23265e-21)
(-0.274839 0.0591646 4.81691e-21)
(-0.291152 0.0568446 1.99652e-21)
(-0.301957 0.0645248 -1.27921e-21)
(-0.294119 0.0611485 -1.91856e-21)
(-0.242413 0.0645937 -6.67711e-21)
(-0.0389574 -0.105086 0)
(-0.0625013 -0.165991 8.27743e-21)
(-0.183073 0.0661267 0)
(-0.221452 0.0555653 4.37741e-21)
(-0.120777 0.0615404 8.4773e-21)
(-0.146577 0.0581725 -5.59777e-21)
(-0.0860444 -0.18145 0)
(-0.125147 -0.221314 -4.90037e-21)
(-0.162279 -0.198662 1.5002e-20)
(-0.219429 0.0286145 -5.83721e-21)
(-0.245523 0.00874551 4.6204e-21)
(-0.179571 -0.157311 -1.06991e-20)
(-0.23049 -0.0769406 1.13788e-22)
(-0.222385 -0.0475246 -9.42586e-21)
(-0.135738 0.0117713 0)
(-0.266245 0.0528002 0)
(-0.245172 0.0395975 2.5967e-22)
(-0.250756 0.0463451 -3.54415e-22)
(-0.169208 0.0200997 -5.02247e-21)
(-0.197277 0.0263327 5.34141e-21)
(-0.2157 0.0314424 4.634e-21)
(-0.28484 0.0701721 1.83082e-21)
(-0.276874 0.0697525 -4.16907e-22)
(-0.24739 0.0774333 3.63316e-21)
(-0.228233 0.0764833 1.32583e-21)
(-0.259228 0.0572887 -5.47572e-21)
(-0.264836 0.0719021 1.99899e-23)
(-0.271601 0.0638706 4.67546e-21)
(-0.201416 0.0821174 2.29948e-21)
(-0.176506 0.0804313 -7.50234e-21)
(-0.119857 0.0731987 2.8829e-21)
(-0.145064 0.0806266 2.3815e-21)
(-0.0957094 0.0709192 -3.36804e-21)
(-0.0575655 0.0524463 0)
(-0.0759408 0.0589822 2.79832e-21)
(-0.091871 0.0547547 -2.40034e-22)
(-0.0834277 0.0470401 0)
(-0.0249325 -0.0547223 -4.19627e-21)
(-0.0490762 -0.0950167 4.10557e-21)
(-0.0595068 -0.102592 2.88711e-21)
(-0.0951232 -0.138299 0)
(-0.107708 0.0317547 1.0204e-20)
(-0.141141 0.0342303 0)
(-0.1689 0.0188896 5.66236e-21)
(-0.121307 -0.116503 1.30633e-22)
(-0.152644 -0.0268254 1.53358e-21)
(-0.151436 -0.12433 -4.2194e-21)
(-0.17998 -0.056137 8.46574e-21)
(-0.0139533 -0.0251675 -4.96204e-22)
(-0.0255737 -0.0430869 0)
(-0.126003 0.0107818 0)
(-0.085057 0.00384015 -5.14551e-22)
(-0.102855 0.00502795 5.18697e-22)
(-0.223807 0.0441781 -3.00818e-21)
(-0.234485 0.0542646 2.64529e-21)
(-0.150076 0.0166044 0)
(-0.184907 0.0256344 -2.45617e-21)
(-0.201144 0.035156 2.95873e-21)
(-0.199208 0.0864355 1.24116e-21)
(-0.239284 0.0767422 -2.01769e-21)
(-0.232766 0.081743 -2.56042e-21)
(-0.218733 0.0602217 -3.409e-21)
(-0.219074 0.0716468 6.75997e-22)
(-0.176344 0.0843052 0)
(-0.148088 0.0843901 0)
(-0.134586 0.0828158 0)
(-0.107081 0.0793847 -2.97557e-21)
(-0.0874886 0.0727901 -1.67582e-21)
(-0.067439 0.0661622 3.98958e-21)
(-0.0505255 0.0542449 0)
(-0.00780851 0.0145316 0)
(-0.00500048 0.00961357 -6.67879e-22)
(-0.014265 0.0259847 3.59747e-21)
(-0.0228614 0.0350544 -3.1536e-21)
(-0.036345 0.047148 0)
(-0.0258686 0.0329097 -5.85684e-21)
(-0.0393749 0.0403158 3.75501e-23)
(-0.0107528 0.0154363 0)
(-0.0146981 0.0201796 -4.59986e-21)
(-0.00493261 0.00587292 0)
(-0.0416704 0.0354751 1.35515e-23)
(-0.0597477 0.0401245 2.05768e-23)
(-0.0589276 0.0304374 3.55591e-21)
(-0.0924805 0.0259537 -4.32545e-21)
(-0.0363813 -0.0479473 8.81291e-21)
(-0.0604582 -0.0669837 -1.85481e-20)
(-0.0882047 -0.067218 3.9511e-21)
(-0.0877752 0.00901584 -2.28004e-21)
(-0.0966002 -0.0379677 8.37686e-21)
(-0.117177 -0.0226117 -5.88531e-21)
(-0.00690011 -0.00708601 0)
(-0.0130818 -0.0154607 0)
(-0.0161974 -0.0167655 -3.64655e-21)
(-0.0323232 -0.0283302 -5.33373e-21)
(-0.00421481 0.00680776 5.65155e-22)
(-0.117803 0.0104126 1.25357e-21)
(-0.0697793 0.00082433 0)
(-0.0874991 0.00282394 -1.09678e-21)
(-0.146699 0.0292965 1.49045e-21)
(-0.173555 0.0375348 -4.45781e-21)
(-0.189331 0.0550486 -8.10662e-23)
(-0.162315 0.0678499 4.04891e-21)
(-0.181566 0.0761264 -4.75263e-21)
(-0.169063 0.0815077 3.23332e-21)
(-0.0990762 0.0791463 -3.93072e-21)
(-0.128482 0.0781581 6.07468e-23)
(-0.125917 0.0828413 1.11158e-21)
(-0.0371323 0.0531464 4.04607e-21)
(-0.0566222 0.0645358 -4.42165e-23)
(-0.0786211 0.0718136 1.95872e-21)
(-0.0111594 0.027361 1.76765e-21)
(-0.0273568 0.0448944 -2.14115e-21)
(-0.00631039 0.0177608 -1.5888e-21)
(-0.0165702 0.0185405 5.23523e-21)
(-0.0262078 0.0239914 0)
(-0.00504095 0.00498541 4.11264e-21)
(-0.00739829 0.00750791 -7.26837e-21)
(-0.00222769 0.000334604 0)
(-0.00222402 0.000331488 0)
(-0.00450589 -0.00215491 -1.1554e-21)
(-0.0267825 0.0194264 5.2423e-21)
(-0.0413388 0.0217626 -1.58193e-23)
(-0.0412688 0.0142471 -1.0782e-20)
(-0.0632514 0.0075752 1.0884e-20)
(-0.038959 -0.0179358 3.80771e-21)
(-0.0543282 -0.0178046 -3.09013e-21)
(-0.0479359 -0.00261626 -3.8081e-21)
(-0.00654788 -0.00306618 7.17178e-22)
(-0.0130976 -0.00712758 2.03319e-21)
(-0.0214454 -0.00661983 1.40881e-21)
(-0.00507092 0.013453 -3.05322e-21)
(-0.0292686 0.0495635 0)
(-0.0616471 0.0639652 0)
(-0.0931568 0.036027 3.94697e-21)
(-0.10884 0.0553774 -2.76841e-21)
(-0.101075 0.0672072 0)
(-0.022263 0.00259981 3.06211e-23)
(-0.062634 0.014813 0)
(-0.010026 0.030959 -1.03653e-22)
(-0.000829216 0.00176161 -6.08664e-22)
(-0.000217476 0.00204884 2.99376e-21)
(-0.00929518 0.00687239 7.49977e-21)
(-0.0147096 0.0105716 0)
(-0.00154222 -0.000792465 -3.39873e-21)
(-0.00344557 0.000626255 -1.07878e-20)
(-0.000489347 -0.0023016 5.95606e-21)
(-0.00139591 0.00147401 4.21849e-22)
(-0.00538005 -0.000676499 0)
(-0.0158999 0.00597538 0)
(-0.0257749 0.00784392 0)
(-0.028272 0.000492436 0)
(-0.00745352 -0.00058491 4.81293e-21)
(-0.016294 -0.00291931 -4.11252e-21)
(-0.0185752 0.000574266 0)
(-0.00132114 0.00993901 0)
(-0.000409812 0.00166608 2.7225e-21)
(0.000580162 0.00166835 -6.82893e-21)
(0.00065185 0.0019546 1.18869e-20)
(0.00063549 0.0017819 -7.18398e-21)
(0.000874905 0.00122656 -2.33877e-21)
(0.000468784 0.000635621 0)
(-0.00314232 -8.88229e-05 3.51874e-21)
(-0.00669402 0.00129194 0)
(0.00015655 -0.00293459 0)
(-0.000223376 -0.00243941 0)
(0.000225399 -0.00302246 -1.29477e-21)
(-0.000778008 0.00109905 2.23582e-21)
(-0.00308809 0.000834659 0)
(-0.00238803 0.000434774 6.76851e-21)
(-0.00463274 0.000682412 1.79024e-21)
(-0.0059858 0.00148011 -6.75079e-21)
(0.00116034 0.00146332 0)
(0.000773518 0.00130191 5.27914e-21)
(0.00124125 0.00107035 8.56216e-21)
(0.00149011 0.00125013 -9.71163e-21)
(0.000673646 0.000345577 -1.74315e-22)
(0.00121942 0.000655722 7.23279e-21)
(0.000782128 -0.0023193 1.45299e-21)
(0.000204444 -0.00132584 -1.08956e-21)
(0.000750319 -0.00229653 -8.36624e-21)
(0.000954171 -0.00268605 1.14318e-20)
(0.00119871 -0.00254153 0)
(0.00133515 0.000953236 -5.358e-21)
(0.000533755 0.000832193 -7.84286e-21)
(0.0017202 -5.59816e-06 1.1628e-20)
(0.00158775 -0.00102092 0)
(0.00107275 -0.00147853 0)
(0.000583652 -0.000820083 4.46027e-21)
(0.00197103 0.0008418 3.35733e-21)
(0.00209807 0.000794863 -5.95497e-21)
(0.0014445 0.000458173 -1.30425e-22)
(0.00190982 0.000597468 1.78979e-24)
(0.00158024 -0.00134376 0)
(0.00194996 -0.00163244 1.9505e-21)
(0.00220285 -0.00110392 -1.68503e-21)
(0.00255751 0.000271587 -4.16503e-24)
(0.00246081 -0.000551065 7.99863e-22)
(0.00247623 -0.000120481 6.32241e-21)
(0.000882603 -0.000391632 -5.91228e-21)
(0.0016053 -0.00076123 0)
(0.00201969 0.000251018 -8.83114e-21)
(0.00245038 0.000199226 4.21039e-21)
(0.00220582 -3.67597e-05 4.4837e-21)
(0.00189755 -0.000437594 0)
(0.00231382 -0.000458536 -4.91229e-21)
)
;

boundaryField
{
    movingWall
    {
        type            fixedValue;
        value           uniform (1 0 0);
    }
    fixedWalls
    {
        type            noSlip;
    }
    frontAndBack
    {
        type            empty;
    }
    defaultFaces
    {
        type            empty;
    }
}


// ************************************************************************* //
