/*--------------------------------*- C++ -*----------------------------------*\
  =========                 |
  \\      /  F ield         | OpenFOAM: The Open Source CFD Toolbox
   \\    /   O peration     | Website:  https://openfoam.org
    \\  /    A nd           | Version:  8
     \\/     M anipulation  |
\*---------------------------------------------------------------------------*/
FoamFile
{
    version     2.0;
    format      ascii;
    class       surfaceScalarField;
    location    "0.018";
    object      phi;
}
// * * * * * * * * * * * * * * * * * * * * * * * * * * * * * * * * * * * * * //

dimensions      [0 3 -1 0 0 0 0];

internalField   nonuniform List<scalar> 
1107
(
0.000315941
-0.000643133
0.000633312
-0.00030612
0.000616934
-0.000300993
-2.95631e-05
0.000646497
0.000304955
0.000538688
-0.000106437
-0.000737205
-0.000967986
0.000629808
-9.70192e-05
0.000700768
0.000286091
-5.35236e-05
-1.49018e-05
-3.70681e-05
0.000683566
-3.3588e-05
1.45504e-05
-8.73999e-05
0.000180254
-0.000147765
-6.60769e-05
0.000300128
-0.00085708
-0.00126603
0.000598173
-0.000205706
0.000738494
0.00075949
-9.57899e-05
4.14457e-05
0.000812468
-9.4424e-05
3.62418e-06
-4.25973e-05
-1.12776e-05
0.000725011
0.000849695
2.96654e-05
-6.68921e-05
6.46371e-05
-0.000127081
-8.53208e-05
2.52139e-05
-4.79767e-05
0.000225471
-0.000138583
-0.000213969
0.000276808
-0.000117413
0.000296035
-0.000876307
-0.00150732
0.000537329
-0.000362689
0.000755156
0.000825494
-0.00018279
0.000893913
-0.000162842
5.23072e-06
-2.26142e-05
-6.04692e-06
-2.15583e-05
0.000861103
1.01506e-05
0.000754677
0.000938897
-0.000111877
0.000954977
-3.76389e-05
0.000943357
-2.38827e-05
3.55027e-05
3.50383e-05
-7.1996e-05
-4.83632e-05
1.34824e-05
-2.64208e-05
-8.08476e-05
-0.000129731
0.000318854
-0.000211507
-0.000321316
0.000395101
-0.00019366
0.000305281
-0.000786488
0.000455842
-0.00165788
-0.000563168
0.000737807
0.000874787
-0.000302421
0.000958769
-0.000246825
2.96745e-06
-1.20992e-05
-3.07948e-06
8.62874e-05
0.000909547
-5.24771e-05
0.000849531
-1.23111e-05
0.000764827
0.00101297
-0.000166081
0.00103515
-5.98165e-05
0.00102428
4.63773e-05
0.000986029
0.000124535
-0.000115391
0.000922747
0.000178673
5.63724e-05
-0.000102174
-3.5046e-05
2.7101e-05
-1.90918e-05
1.02286e-05
-9.54834e-06
-0.000127025
-0.000214214
-6.06351e-05
-0.000168564
0.000681984
-0.000789311
0.000892005
-0.000456618
0.000994853
-0.000349673
2.17013e-06
-4.04076e-06
-9.09344e-07
0.000860222
-6.60657e-05
0.000820562
-2.35077e-05
0.000752516
0.000816503
-0.000144007
0.000250251
0.00105799
-0.000229221
0.00108557
-8.73932e-05
0.00107714
5.48102e-05
0.00103606
0.000165617
0.000957461
0.000257268
4.46754e-05
-3.00833e-05
-7.52273e-05
2.39462e-05
-1.43169e-05
1.12489e-05
-6.39442e-06
4.20392e-06
-2.50339e-06
0.000860932
-0.000635566
0.000980434
-0.000469175
8.68638e-07
-7.05475e-07
-4.0696e-08
0.000328117
0.00066688
-0.000178494
0.00078729
-7.10748e-05
0.000783167
-2.8671e-05
0.000729008
0.000816124
0.000391588
0.000616816
0.000527426
0.000385575
-0.00129148
0.00152272
0.00105133
-0.00030012
0.00108589
-0.000121953
0.00108434
5.63612e-05
0.00104327
0.000206685
0.000948225
0.000352316
-3.48751e-05
-5.4296e-05
5.90878e-05
-1.88108e-05
-3.03812e-05
-8.90817e-06
-1.6297e-05
-3.32288e-06
-8.08867e-06
-6.61529e-07
-3.36682e-06
-7.02218e-07
0.000994253
0.00033989
-0.000948567
0.000370287
-0.00099489
0.000686515
-7.77198e-05
0.000737659
-2.55667e-05
0.000700337
0.00077523
0.000564583
0.000537161
0.000765495
0.000406191
0.00165369
0.000473695
0.000926749
-5.50293e-05
-9.16493e-05
9.23826e-05
-2.98782e-05
-5.55324e-05
-1.41382e-05
-3.2037e-05
-5.24624e-06
-1.69807e-05
-1.05342e-06
-7.55964e-06
-1.75564e-06
0.000110022
0.000291324
-6.14558e-05
0.000224752
-0.000803032
0.000357326
-0.000665701
0.000680253
-2.0314e-05
0.000674771
0.000400764
0.000182953
-4.09627e-05
-0.000118853
6.81668e-05
-2.25928e-05
-7.39023e-05
-1.09051e-05
-4.37247e-05
-4.16172e-06
-2.3724e-05
-9.07205e-07
-1.08142e-05
-2.66286e-06
0.000251131
0.000191585
-0.000151393
0.000195853
-3.25569e-05
0.000134723
-0.000580429
0.000342863
-0.000328311
0.000654457
0.000279712
0.000372184
-1.21738e-05
-0.000125911
1.92314e-05
-6.96874e-06
-7.91073e-05
-3.47961e-06
-4.72138e-05
-1.41252e-06
-2.57911e-05
-3.52103e-07
-1.18746e-05
-3.01496e-06
0.000147995
0.000126147
-8.25566e-05
0.000122282
-7.7822e-05
0.000118042
-1.5876e-05
6.93672e-05
-0.000306933
0.000326146
0.000185724
0.000241983
1.47783e-05
-0.000113886
-2.68032e-05
7.57658e-06
-7.19056e-05
3.40793e-06
-4.30452e-05
1.2134e-06
-2.35966e-05
2.02838e-07
-1.0864e-05
-2.81212e-06
0.000121801
7.23266e-05
-6.79814e-05
7.9753e-05
-4.00276e-05
7.04768e-05
-3.02571e-05
5.80359e-05
-4.54475e-06
1.92127e-05
0.000109549
0.000197977
-7.96388e-05
5.62483e-05
0.000132939
1.65055e-05
-3.55438e-05
-9.48477e-05
7.81538e-06
-6.32154e-05
3.37544e-06
-3.86052e-05
1.21952e-06
-2.14407e-05
2.36576e-07
-9.88108e-06
-2.57555e-06
3.63414e-05
-4.36536e-05
4.47111e-05
-3.29395e-05
4.5622e-05
-1.51728e-05
3.37264e-05
-5.94759e-06
1.4668e-05
-4.57308e-05
2.49413e-05
7.70378e-05
-2.8737e-05
5.18803e-05
-6.17485e-05
-1.13437e-05
-3.8834e-05
-2.54989e-06
-1.86748e-05
-5.12548e-06
1.54078e-05
-2.47972e-05
2.1956e-05
-2.08985e-05
2.51101e-05
-1.24276e-05
2.16188e-05
-3.06524e-06
8.7204e-06
8.10128e-06
-2.30165e-05
3.98564e-05
-3.35989e-06
5.65012e-06
7.43005e-06
-9.72028e-06
-1.1694e-05
5.04091e-05
-5.73901e-05
-1.68194e-05
1.3777e-06
-8.51525e-06
1.52388e-05
4.59616e-06
-1.22048e-05
8.90914e-06
-1.17504e-05
1.20698e-05
-7.85823e-06
1.17518e-05
-2.56057e-06
5.65516e-06
-5.68529e-07
3.3388e-06
-6.13017e-06
-1.45039e-06
2.7703e-06
4.3302e-06
-2.12686e-06
7.57188e-06
-1.50056e-05
9.56054e-06
-7.31188e-07
-2.00203e-06
4.11092e-06
4.26772e-07
-4.34587e-06
2.3842e-06
-5.67989e-06
4.69957e-06
-4.38019e-06
5.55027e-06
-1.65667e-06
3.09458e-06
1.07369e-06
1.49595e-06
-3.13817e-06
2.16646e-07
1.67176e-06
-5.17645e-07
1.16108e-06
-9.29898e-07
2.73081e-06
5.77091e-06
-2.52629e-06
4.29202e-06
-2.12938e-05
1.95281e-05
-8.42802e-07
4.86045e-07
-3.74433e-07
-7.12862e-07
-8.62427e-07
-2.83396e-08
-1.93333e-06
1.11289e-06
-2.09321e-06
2.08548e-06
-9.15398e-07
1.43791e-06
1.7254e-06
2.86685e-07
-9.38399e-07
1.06011e-06
6.52518e-07
4.08843e-07
7.45276e-07
-1.34587e-07
3.65771e-07
-3.03666e-07
5.08194e-07
-5.58379e-07
4.8504e-06
-5.73933e-07
7.34495e-07
-1.00337e-06
-6.26829e-07
3.99997e-07
-5.68935e-07
-3.21832e-07
-1.42854e-07
-6.77586e-07
4.28156e-07
-4.35881e-07
5.22512e-07
1.41359e-06
-9.54419e-07
1.26623e-06
1.30916e-06
3.76478e-08
8.15742e-07
2.45622e-07
3.49815e-07
2.60881e-07
-3.47068e-09
6.55749e-08
-5.01899e-08
-7.62499e-07
-4.20182e-07
6.08748e-07
-3.51368e-07
4.59033e-07
-4.14858e-07
2.45921e-07
-3.75962e-07
-8.87234e-08
-1.19135e-07
-1.30294e-07
8.66321e-08
8.51587e-07
-1.08159e-06
1.6436e-06
9.63366e-07
-6.08624e-07
8.80827e-07
-2.743e-08
5.25496e-07
6.99433e-08
2.08432e-07
4.89802e-08
1.53852e-08
-1.06066e-06
-5.93968e-07
8.92129e-07
-5.12603e-07
-2.58934e-07
-1.96424e-07
2.406e-07
-2.40615e-07
1.10574e-07
-1.97231e-07
-1.06257e-08
-4.3662e-08
1.13596e-06
6.39279e-07
-9.23647e-07
5.12483e-07
-6.30701e-07
5.95618e-07
-3.23411e-07
5.23083e-07
-2.50157e-08
2.69561e-07
8.81396e-09
6.43669e-08
-1.27671e-06
-3.62932e-07
5.78981e-07
-7.51005e-07
-3.55554e-07
-3.16584e-07
-1.38774e-07
-9.69519e-08
9.69388e-08
-1.13822e-07
2.71645e-08
-5.42888e-08
-1.33135e-06
-5.9372e-08
1.1402e-07
4.9108e-07
-6.86476e-07
7.55373e-07
3.96398e-07
2.82069e-07
-3.17154e-07
3.30639e-07
-1.30967e-07
2.53879e-07
-9.33494e-09
7.31818e-08
-9.04988e-07
-2.08942e-07
-4.89037e-07
-1.83099e-07
-1.76768e-07
-5.89576e-08
-3.77669e-08
2.08825e-08
-2.7125e-08
-9.38273e-07
-2.60791e-08
3.08179e-07
4.65772e-07
2.12692e-07
1.38113e-07
-1.24628e-07
1.51821e-07
-2.891e-08
6.38461e-08
-5.92821e-07
-1.05156e-07
-2.86124e-07
-7.37429e-08
-8.24936e-08
-1.42328e-08
-6.24168e-09
-6.09817e-07
-9.08423e-09
1.64135e-07
2.60547e-07
9.02563e-08
5.34539e-08
-2.62606e-08
3.49355e-08
-3.49078e-07
-4.22021e-08
-1.39176e-07
-1.70607e-08
-2.04742e-08
-3.56648e-07
-1.51339e-09
6.80358e-08
1.21876e-07
2.18339e-08
8.67652e-09
-1.71377e-07
-1.00007e-08
-3.75351e-08
-1.73538e-07
6.48221e-10
1.63751e-08
3.05115e-08
-4.75358e-08
-4.68866e-08
0.000592028
-0.00137852
-0.00106586
0.000312271
-0.000526485
0.000847252
-0.000534982
0.000525937
0.00129564
-0.000769701
0.00110198
-0.000276538
0.00155437
-0.00183091
0.000488517
-0.000300794
-0.00136811
0.000598405
0.00013404
-0.000302603
-0.000392445
4.33387e-05
-0.000118566
-0.000259265
0.00031251
-0.000704955
0.00114459
-0.000832082
0.00060961
-0.000758497
0.00203507
-0.00143667
0.000204159
0.00127859
-0.00107443
0.000977798
0.000342233
0.000974882
-0.00173338
-0.000461783
-5.94782e-05
0.000221999
-0.000281477
-3.72663e-05
-0.000742221
-7.3077e-05
-0.000669144
0.00130881
-0.00138189
0.000476733
-0.00125665
0.00135634
-0.00181813
0.00028191
0.000851281
-0.000569371
-0.00119351
0.000724339
-0.00130427
0.00100415
-0.000579935
0.00089064
-0.00214729
-0.000927486
0.000842039
0.000811656
0.00176879
-0.000386603
0.000951185
-0.00139171
0.00126975
-0.000387553
-0.00109893
0.000712323
-0.00074661
-0.00123142
0.00128779
3.83288e-05
-0.00121256
0.00046595
-0.00100588
0.000281911
-0.000189094
0.000122044
-0.000311139
-0.000547099
0.000252475
-0.000799575
-0.00112942
0.000147852
-0.00127727
-0.00199943
0.00102623
-0.00195372
-0.000456863
-0.000123072
-0.000537494
0.000149941
-0.000660566
-0.000112265
-0.00188717
-0.00206598
-0.000852238
0.00166389
-8.6743e-05
0.000864442
0.000310162
0.00145862
0.00197406
0.00164158
4.50853e-05
0.000819357
-0.000887223
0.000932309
-0.0001749
-0.000396523
0.000434852
-0.000246582
-0.000814832
0.000639932
-0.000348882
-0.000653015
0.000304133
-0.000371104
6.37483e-05
-0.000242972
7.04218e-05
-0.000313394
-0.000729153
1.786e-05
-0.000747013
-0.00125941
-0.000362567
-0.000896842
-0.00224974
0.00101008
-0.00125667
0.000349518
-0.00171647
-0.0015183
0.000261634
0.000931484
-0.00264795
-0.00131825
0.000615168
0.00135889
0.00143453
-0.000955336
0.00132752
0.000686242
0.00204513
0.000208348
0.00122618
0.00114066
0.000186589
0.000954068
0.00082652
0.000426642
0.000399878
0.000730775
0.000794523
-0.000723777
-0.000294162
2.67125e-06
-0.000296833
-0.000744342
-0.00033863
-0.000405712
-0.00123547
-0.000414626
-0.000820846
-0.00173288
0.0020087
-0.00174706
-0.000639253
0.00170296
-0.00242674
-4.41033e-05
0.0012251
-0.00186435
-0.00050778
-0.000564873
0.000806856
0.000762647
-0.00109376
0.00185641
0.000951371
0.00217755
0.00149724
0.000680306
0.00245131
0.00285119
-0.000612898
0.0019129
-0.0013
0.00303964
-0.000188447
-0.000323637
0.000529215
-0.00103699
-9.33941e-05
-0.000230242
-0.000499106
-0.000117873
-0.000381234
-0.000938718
-0.000409503
0.00167413
0.000238773
-0.00163002
-0.000234327
-0.00064822
0.000886993
-0.000896576
-0.000140419
0.000607273
-0.0008416
-0.000289303
-0.00105196
0.000403741
-0.000289627
0.000487604
0.000517229
2.1547e-05
-0.000534034
0.000512487
-0.00103041
-0.000103501
0.000306584
-0.000203083
-0.000637535
-0.000605664
0.00112289
0.00125074
0.00193105
-0.000313542
-0.000716872
-0.00161354
0.00115896
0.000772082
0.000970518
-0.000643025
-0.000265786
0.000364942
-0.00050536
-0.000617561
0.000208058
-0.00025262
-0.000119747
-0.000146039
-0.00050098
-0.000292922
-0.00114123
0.000299629
-0.000254236
-0.000543354
0.000289117
-0.000139612
-0.000462499
-4.2861e-05
0.000751802
-0.000452174
-0.000599156
0.000459544
-8.66691e-05
0.000326212
-1.96279e-05
0.000239543
-0.000195015
0.000175387
2.00098e-05
0.000127084
-0.000147093
-0.000175005
-0.000378089
-0.000222109
-0.000155979
-0.000103484
0.000236423
0.00038412
-0.000126235
0.000510355
0.000996657
0.000283466
-0.000505575
-0.000354069
-0.00107094
0.000451542
0.000545115
-0.000580599
-0.000490342
0.00122362
-2.78935e-05
0.000104931
0.00020853
0.000106183
-0.000252222
-1.13351e-05
-0.000424392
0.000171772
-0.000467253
-9.49505e-05
-0.000157272
-0.000387873
-0.000216101
0.000428909
3.06354e-05
-0.000718026
0.000265852
-0.00048038
1.31265e-05
-0.000214527
-0.000266027
0.000296662
-0.000307451
4.1424e-05
-6.79079e-05
-0.000211778
0.00014387
-3.6391e-05
-0.000118106
8.17148e-05
8.97767e-06
3.24528e-06
2.40922e-05
-2.73375e-05
1.06753e-05
-1.95801e-05
4.36724e-05
6.44187e-05
-8.39988e-05
7.33963e-05
-3.75799e-05
-4.64189e-05
-0.000184673
-1.86111e-05
-8.72641e-06
-6.503e-05
-1.84467e-05
-8.23813e-05
-0.000102292
-0.000238361
-8.26505e-05
-0.00015571
-0.000588225
-9.47992e-05
0.000303329
0.000415556
0.000960671
-0.00037368
-0.000214546
0.000864022
9.66488e-05
8.11941e-06
3.1737e-05
0.000113051
3.02216e-05
8.28292e-05
0.000333551
5.01734e-05
-0.000207445
1.15752e-05
-6.86395e-05
-0.000138806
-0.00028474
-0.000271614
-0.000212166
-5.94482e-05
-0.000426693
-0.000130031
0.000170427
-2.65566e-05
-0.000211851
8.18203e-05
4.86965e-05
2.46998e-05
0.000130411
0.000103855
3.771e-05
5.96238e-06
6.24098e-05
1.55229e-05
-3.91411e-05
-2.58889e-05
-0.000141433
-1.72014e-05
-1.24532e-06
-4.30903e-05
-7.37546e-06
7.96763e-06
7.27118e-06
3.97047e-05
-8.17174e-05
-5.97155e-05
-0.000237428
-0.000118327
-0.0001191
-0.000332873
0.000284681
4.88699e-05
0.00038133
4.84565e-05
-4.88201e-06
4.45867e-05
7.79472e-05
0.000126817
8.67883e-05
-2.43785e-05
0.000190643
-0.000213015
7.42095e-05
-0.000272463
-1.68194e-05
-4.8504e-06
-4.43063e-06
1.17018e-05
-3.19741e-07
-2.71208e-05
-1.59695e-05
-8.68363e-05
-1.03865e-05
3.01101e-06
-2.63559e-05
-1.2713e-07
1.30381e-06
1.0398e-05
4.58905e-05
-5.27959e-05
-3.40404e-05
-0.000171896
-0.00012344
2.12317e-05
2.46587e-05
0.000148049
2.4609e-05
-1.11036e-06
1.15083e-05
2.26633e-06
-2.64077e-06
1.94658e-06
8.36221e-07
-4.78311e-07
-2.16247e-06
-1.48168e-06
-2.72177e-05
8.6176e-07
-6.12581e-05
-4.0529e-06
3.92577e-06
-3.19114e-06
2.98737e-06
9.20897e-06
2.29937e-06
3.38677e-05
3.85722e-05
-4.70453e-06
-6.31813e-05
1.92317e-06
2.47952e-06
-1.6433e-06
4.77889e-06
-5.06297e-07
-1.65617e-06
-2.1496e-06
-8.72927e-07
-2.5291e-06
-6.22469e-06
3.03355e-06
-4.30152e-06
-2.34279e-06
3.60902e-06
6.44583e-07
3.67814e-06
7.18351e-06
-2.40462e-06
2.47898e-06
3.53781e-06
-1.05883e-06
-7.63699e-07
5.14894e-07
3.09413e-06
2.1585e-06
-7.46695e-07
-1.4029e-06
-3.15131e-06
-1.63696e-06
-3.03986e-06
4.38878e-07
2.65526e-06
4.11702e-06
3.35332e-06
-2.18764e-06
-9.63666e-07
3.24646e-06
1.06856e-07
1.23486e-06
3.89012e-06
-2.46087e-06
-3.42453e-06
-3.3105e-06
3.20364e-06
)
;

boundaryField
{
    movingWall
    {
        type            calculated;
        value           uniform 0;
    }
    fixedWalls
    {
        type            calculated;
        value           uniform 0;
    }
    frontAndBack
    {
        type            empty;
        value           nonuniform List<scalar> 0();
    }
    defaultFaces
    {
        type            empty;
        value           nonuniform List<scalar> 0();
    }
}


// ************************************************************************* //
