/*--------------------------------*- C++ -*----------------------------------*\
  =========                 |
  \\      /  F ield         | OpenFOAM: The Open Source CFD Toolbox
   \\    /   O peration     | Website:  https://openfoam.org
    \\  /    A nd           | Version:  8
     \\/     M anipulation  |
\*---------------------------------------------------------------------------*/
FoamFile
{
    version     2.0;
    format      ascii;
    class       volVectorField;
    location    "0.018";
    object      U;
}
// * * * * * * * * * * * * * * * * * * * * * * * * * * * * * * * * * * * * * //

dimensions      [0 1 -1 0 0 0 0];

internalField   nonuniform List<vector> 
656
(
(0.743387 0.0565331 -9.65793e-25)
(0.9279 0.0140754 1.86588e-24)
(0.954673 -0.00127179 0)
(-0.0910853 0.118984 2.38904e-23)
(0.556721 0.0976943 1.12007e-23)
(0.840792 0.000917182 0)
(-0.0571755 0.0672468 -4.95212e-23)
(-0.0145908 0.0188578 9.81998e-24)
(0.967879 -0.000155817 0)
(-0.000538249 0.138163 -2.38919e-24)
(-0.00313333 0.192395 -7.87341e-23)
(-0.117779 0.171957 0)
(0.375893 0.13973 1.00487e-23)
(0.714136 0.00919714 0)
(0.889774 0.00122914 -1.70186e-22)
(0.904357 0.00052328 4.7771e-23)
(0.0010312 0.0821232 9.9609e-24)
(0.00137463 0.0266624 0)
(0.971185 -8.75052e-05 -3.43102e-23)
(0.910464 0.000238276 -1.43841e-22)
(-0.0124127 0.0916826 7.74882e-23)
(-0.00524439 0.0621191 0)
(-0.0239689 0.123374 1.3404e-24)
(-0.00807493 0.241405 1.55192e-22)
(-0.136203 0.223165 -1.68731e-22)
(0.210057 0.180163 -2.26445e-23)
(0.576239 0.024298 0)
(0.798445 0.00620823 2.6578e-22)
(0.82548 0.00283577 -8.89896e-23)
(-0.00144514 0.0352621 0)
(-0.000151749 0.011323 0)
(0.912971 0.000116905 5.15731e-23)
(0.972379 -5.98211e-05 -3.67383e-23)
(0.837207 0.00142839 1.9603e-22)
(0.842224 0.000678319 -5.20373e-23)
(0.846214 3.52907e-05 -1.09747e-22)
(-0.00671223 0.0598635 -1.05927e-22)
(-0.00277984 0.0402808 1.71505e-23)
(-0.0136544 0.0809945 -1.89328e-22)
(-0.0409301 0.156133 -1.58447e-22)
(-0.0170548 0.281142 1.6729e-22)
(-0.143933 0.268974 -5.05873e-24)
(0.0680867 0.217347 4.55012e-22)
(0.431063 0.0467956 0)
(0.693078 0.0158159 0)
(0.733305 0.00755793 -3.69639e-22)
(-0.000814395 0.0226869 -5.42739e-24)
(-0.000128169 0.00722082 0)
(0.847504 -0.000793807 1.21463e-22)
(0.915094 2.16845e-05 -2.80669e-23)
(0.97274 -2.88806e-05 4.95854e-24)
(0.751126 0.00391113 0)
(0.758956 0.00187204 0)
(0.765094 7.64546e-05 -1.07526e-22)
(0.767156 -0.00217553 4.64393e-22)
(0.754268 -0.00561361 0)
(-0.0101991 0.0358683 2.01392e-22)
(-0.00493995 0.0252873 2.96785e-22)
(-0.00199834 0.0162616 -2.89224e-22)
(-0.0247661 0.102666 -1.86282e-22)
(-0.0189882 0.0477986 5.88022e-22)
(0.283876 0.0784465 -1.32798e-22)
(0.573585 0.0311308 1.74992e-22)
(0.62684 0.0156299 -5.20935e-22)
(-0.000548234 0.00872659 4.56983e-23)
(-6.84004e-05 0.00253171 6.12712e-23)
(0.838713 -0.00205786 -2.57476e-22)
(0.915873 -0.000114984 8.63199e-23)
(0.973308 1.24696e-05 5.54542e-24)
(0.720339 -0.0146651 -1.13336e-23)
(0.650897 0.00822368 0)
(0.661706 0.00403082 1.94373e-22)
(0.670332 0.000218647 2.05758e-22)
(0.673546 -0.00444096 -8.91256e-22)
(0.65675 -0.0116961 2.29765e-22)
(-0.00823479 0.0137383 8.94448e-22)
(-0.00398115 0.00908113 -6.28311e-24)
(-0.0017959 0.00551848 0)
(-0.000634248 0.00299075 1.0645e-22)
(0.441373 0.0542364 0)
(0.506214 0.0286473 6.66236e-22)
(-8.96688e-05 0.00130683 -1.00778e-22)
(5.32723e-05 0.000254019 -3.10607e-23)
(0.601198 -0.0236159 4.75888e-22)
(0.81612 -0.00571125 1.50922e-22)
(0.91111 -0.000317587 0)
(0.97374 4.97085e-05 -5.33837e-23)
(0.610895 -0.0291359 -2.91565e-22)
(0.463031 -0.0462503 7.30906e-22)
(0.249856 -0.190199 -8.84698e-22)
(0.535818 0.0154349 0)
(0.549353 0.00757702 4.70343e-23)
(0.560748 0.000669012 -1.46414e-22)
(0.565736 -0.00806717 5.16928e-22)
(0.545797 -0.021659 -8.79053e-22)
(-0.0146019 0.00610053 3.77026e-22)
(-0.00921776 0.00300788 -4.01945e-22)
(-0.00541767 0.00137832 -1.99195e-22)
(-0.00286142 0.000477449 3.94687e-22)
(-0.00121666 4.71939e-05 4.75219e-23)
(-0.000220662 -5.86555e-05 -2.87345e-23)
(-0.137242 -0.248739 5.91688e-23)
(0.410955 -0.147717 -6.16998e-23)
(0.730526 -0.00883664 -8.01831e-22)
(0.898968 -0.0010685 0)
(0.97272 0.000120223 0)
(0.487738 -0.0519317 5.56807e-22)
(0.318553 -0.0790586 -2.80193e-22)
(0.103843 -0.228869 1.03164e-22)
(-0.142447 -0.295873 1.38968e-21)
(-0.0452778 0.0107481 0)
(-0.0332037 0.00560986 1.8887e-22)
(-0.0231134 0.00275922 -6.67115e-22)
(-0.0147361 0.00111427 1.86018e-22)
(-0.00781935 0.000287266 -4.43232e-23)
(-0.0021068 2.68411e-05 -2.75193e-23)
(-0.00818835 -0.284027 0)
(-0.120911 -0.194024 0)
(0.582378 -0.103323 4.91108e-22)
(0.849217 -0.000842401 -4.02688e-23)
(0.969967 0.000207519 -1.04026e-22)
(-0.0168285 -0.326252 -1.6533e-21)
(-0.0727419 0.00928612 0)
(-0.0545826 0.00515816 1.95697e-22)
(-0.0388581 0.00259374 -1.64548e-24)
(-0.0253462 0.00110913 9.68561e-23)
(-0.0138019 0.000347637 -4.55239e-23)
(-0.00399086 7.34369e-05 0)
(-0.0279274 -0.156912 -5.54085e-22)
(-0.00325279 -0.229695 0)
(-0.0950836 -0.135723 5.09723e-22)
(0.757658 -0.0597725 0)
(0.956245 0.00134909 7.71866e-23)
(-0.0472152 -0.19538 0)
(-0.0926999 0.0074651 0)
(-0.0702773 0.00417387 1.21834e-22)
(-0.050509 0.00213632 -3.53359e-22)
(-0.0332621 0.000945375 1.1439e-22)
(-0.0183511 0.000324967 5.10782e-23)
(-0.00552886 8.85474e-05 -1.7142e-23)
(-0.0153299 -0.111243 2.83827e-22)
(-0.0147068 -0.118086 0)
(-0.000374458 -0.166945 -4.46771e-22)
(-0.0605309 -0.0774022 4.31616e-22)
(0.931352 -0.0147345 0)
(-0.027775 -0.138375 0)
(-0.100102 0.00633657 1.55355e-22)
(-0.0759454 0.00360552 -1.50024e-22)
(-0.0546511 0.00184541 1.45225e-22)
(-0.0360484 0.000812949 -2.78209e-22)
(-0.0199519 0.000280096 3.82634e-22)
(-0.00614612 7.62673e-05 -5.10255e-23)
(-0.0125038 -0.061923 2.45349e-22)
(-0.00757884 -0.0835023 -5.25399e-22)
(-0.00604126 -0.0806263 1.52747e-22)
(0.00176199 -0.0995603 -4.63231e-22)
(-0.014178 -0.0213632 1.31263e-23)
(-0.0225031 -0.0789917 0)
(-0.0137544 -0.0415187 -5.53555e-23)
(-0.100016 0.00674948 -1.91293e-22)
(-0.0757638 0.00431591 7.71418e-22)
(-0.0545678 0.00233614 -7.36548e-22)
(-0.036102 0.00101518 0)
(-0.0200582 0.000317906 0)
(-0.00626786 6.85254e-05 -5.60282e-24)
(-0.00757306 -0.032378 1.18069e-22)
(-0.00625601 -0.045554 3.28905e-24)
(-0.00298095 -0.0568642 4.00521e-22)
(-0.00128257 -0.045694 -1.50204e-22)
(0.00233065 -0.0306981 0)
(-0.00758216 -0.0192094 8.96219e-22)
(-0.0583123 0.0035026 8.40672e-22)
(-0.0382752 0.00225265 -8.69539e-22)
(-0.0210761 0.000807871 0)
(-0.00650193 0.000144062 -7.88947e-24)
(-0.00418132 -0.0144896 -2.37611e-22)
(-0.00373623 -0.0236192 -9.23205e-23)
(-0.0025644 -0.0305198 1.90493e-22)
(-0.000635165 -0.0322257 -1.30236e-22)
(0.000176855 -0.0138217 4.96886e-23)
(-0.00392411 -0.00682714 0)
(-0.0023397 0.00423619 -1.02049e-21)
(-0.046025 0.000943298 0)
(-0.0161443 0.000339538 -2.7557e-23)
(-0.00151789 -0.00128634 0)
(-0.0020973 -0.00495262 -2.41485e-22)
(-0.00204172 -0.0102505 -4.62094e-22)
(-0.00153517 -0.0156825 -6.29638e-23)
(-0.000680111 -0.0171025 1.28051e-22)
(7.37087e-05 -0.0100401 -4.98799e-23)
(-0.000986652 0.000854269 2.08496e-21)
(-0.00114253 0.00247733 2.17121e-21)
(-0.00268423 0.00395583 6.9887e-23)
(-0.000389765 0.000386298 -4.8248e-22)
(-0.000768123 -0.000679749 -6.8404e-25)
(-0.000989323 -0.0033431 1.25073e-22)
(-0.000834979 -0.00661594 3.74354e-22)
(-0.000430616 -0.00872216 7.68321e-24)
(-6.1063e-05 -0.00536892 -2.29761e-23)
(-0.000262906 -0.000655505 -1.4197e-24)
(-0.000423672 4.95946e-05 -1.74393e-21)
(-0.000484452 0.00141902 -5.24983e-22)
(-0.00118285 0.00187283 0)
(-0.00279296 0.00838524 1.50117e-21)
(7.60612e-05 0.000602283 -2.59264e-22)
(-0.000154216 0.000480273 2.57177e-22)
(-0.000334862 -0.000267368 1.28594e-22)
(-0.000391997 -0.00204863 0)
(-0.000237475 -0.00358375 -1.22712e-22)
(-5.67246e-05 -0.00274449 1.72661e-23)
(2.54892e-05 -0.00120264 8.28316e-22)
(-6.60554e-05 -0.000873065 3.3394e-22)
(-0.00015918 -0.000335907 1.96532e-22)
(-0.000156187 0.000722957 5.34155e-23)
(-0.000292717 0.000755551 -6.10607e-23)
(-0.000401887 0.00197379 1.08068e-21)
(0.00013032 0.000258585 1.08355e-21)
(7.76532e-05 0.000568096 -4.05485e-22)
(-4.77937e-05 0.000474598 -2.6465e-22)
(-0.0001195 -3.47986e-05 -1.28808e-22)
(-0.000105112 -0.00104859 0)
(-3.4831e-05 -0.00109782 -1.13398e-23)
(0.00023572 -0.00105396 0)
(5.43785e-05 -0.00113314 -2.86466e-22)
(4.11541e-08 -0.000850577 -9.86658e-22)
(-4.23528e-05 -0.000431208 3.21053e-22)
(-2.18194e-05 0.00028625 -3.56823e-22)
(-1.14065e-05 9.87305e-05 9.60547e-24)
(0.000261061 9.16932e-05 -4.70646e-22)
(8.35983e-05 0.000212645 7.17484e-22)
(5.3805e-05 0.000477092 -6.94215e-22)
(-9.88642e-06 0.000389807 1.32678e-22)
(-2.32614e-05 5.5278e-05 0)
(-1.12624e-05 -0.000297458 1.12124e-23)
(0.000213599 -0.0004094 0)
(0.000155355 -0.000919784 5.51266e-22)
(4.37238e-05 -0.000942652 7.17204e-22)
(1.44709e-05 -0.000679888 9.39974e-22)
(3.08099e-06 -0.000339058 -3.3328e-22)
(7.43135e-06 4.97144e-05 -2.19663e-23)
(0.000524047 0.000121708 -5.62027e-22)
(0.000205137 5.25075e-05 0)
(4.4257e-05 0.000157831 5.15237e-22)
(2.90217e-05 0.00035097 0)
(3.93094e-06 0.000253016 0)
(3.37493e-06 4.24036e-05 0)
(0.000418873 -0.000121087 6.28009e-22)
(0.000123123 -0.000330043 -5.7009e-22)
(8.81363e-05 -0.000727064 -5.60944e-22)
(2.78067e-05 -0.000687656 -4.18528e-22)
(1.42134e-05 -0.00042937 -4.34933e-22)
(1.00124e-05 -0.000135209 1.30841e-23)
(0.000713582 7.19146e-05 0)
(0.000449865 7.3292e-05 1.40846e-22)
(0.000147183 2.65587e-05 0)
(1.82638e-05 0.000103594 2.14056e-27)
(1.20197e-05 0.000208894 0)
(5.727e-06 8.7633e-05 -8.99599e-23)
(0.000813676 1.43327e-05 0)
(0.000796725 -0.000101228 -5.66801e-22)
(0.000323815 -7.22543e-05 -1.58068e-22)
(6.05287e-05 -0.000240356 2.92368e-22)
(4.20706e-05 -0.000510822 -4.15655e-22)
(1.51236e-05 -0.000407442 -1.3164e-22)
(8.92795e-06 -0.000145151 9.16101e-23)
(0.000611043 4.15955e-05 -1.89131e-23)
(0.000352915 3.91689e-05 -2.1064e-22)
(9.46804e-05 1.0981e-05 0)
(4.39569e-06 5.49016e-05 -1.08395e-22)
(4.33935e-06 6.39907e-05 9.07504e-23)
(0.000690988 5.88575e-06 2.10263e-24)
(0.00066843 -6.50403e-05 6.36524e-22)
(0.00023046 -3.72492e-05 -5.82087e-27)
(2.40616e-05 -0.000155661 1.30893e-25)
(1.54021e-05 -0.00029267 -2.65757e-22)
(7.18829e-06 -0.000127076 8.3746e-23)
(0.000481337 2.18391e-05 1.48874e-22)
(0.000247946 1.81578e-05 1.02764e-22)
(4.98925e-05 2.69601e-06 -1.26422e-22)
(-1.842e-08 1.37521e-05 2.30447e-23)
(0.000541838 2.19668e-06 2.09811e-24)
(0.000518392 -3.68367e-05 -1.40798e-22)
(0.00014792 -1.54763e-05 4.54723e-22)
(5.5401e-06 -8.17744e-05 -2.13058e-22)
(4.82518e-06 -8.50522e-05 3.59754e-26)
(0.000340959 1.0008e-05 0)
(0.000143723 6.52628e-06 1.14061e-22)
(1.28336e-05 -1.08687e-07 7.98442e-23)
(0.000382888 9.74626e-08 0)
(0.000362094 -1.80628e-05 -2.0595e-22)
(7.80192e-05 -3.76331e-06 3.96468e-22)
(-1.4369e-07 -2.0247e-05 4.40669e-23)
(0.00020059 3.61228e-06 -9.72702e-25)
(4.51399e-05 1.90767e-06 -1.43323e-22)
(0.000225029 -8.63025e-07 9.71437e-25)
(0.000209399 -7.20189e-06 -1.14173e-22)
(2.0189e-05 2.26472e-07 1.13094e-22)
(6.66665e-05 1.04608e-06 4.34717e-23)
(7.47931e-05 -7.90238e-07 0)
(6.58502e-05 -2.57375e-06 -1.10107e-23)
(-0.143306 0.303035 2.23266e-21)
(-0.0278356 0.257946 5.0671e-22)
(-0.0414187 0.125276 0)
(-0.0749526 0.184893 2.7999e-21)
(-0.0630675 0.190831 -2.95881e-21)
(-0.0740225 0.26404 0)
(-0.0381132 0.308604 0)
(-0.0992491 0.350921 -1.03103e-21)
(-0.0873442 0.311056 0)
(-0.0411179 0.264411 -1.88551e-21)
(0.148372 0.124612 4.23636e-21)
(-0.0967879 0.273433 0)
(-0.0330429 0.0619289 -3.67948e-22)
(-0.054892 0.101903 0)
(-0.0158066 0.018851 -3.84437e-21)
(-0.0375121 0.0455835 3.93403e-21)
(-0.081166 0.117124 -2.28566e-21)
(-0.112634 0.153146 0)
(-0.0947571 0.19761 0)
(-0.119178 0.233252 6.20959e-22)
(-0.111681 0.2899 0)
(-0.101126 0.284936 1.96194e-21)
(-0.021632 0.189796 2.37548e-21)
(0.0888015 0.152164 -5.71632e-21)
(0.29482 0.0885903 1.1229e-21)
(-0.150367 0.226936 -5.92491e-22)
(-0.143754 0.244645 0)
(-0.0211278 0.0116795 -3.1866e-21)
(-0.0478079 0.0275875 8.72469e-22)
(-0.0588452 0.0502446 7.26379e-22)
(-0.0883345 0.0784069 2.32401e-21)
(-0.117066 0.0766409 -4.48475e-21)
(-0.161715 0.108858 -3.9622e-21)
(-0.155901 0.148995 -3.02689e-21)
(-0.182475 0.176205 5.67105e-21)
(-0.136262 0.20039 -1.64669e-21)
(-0.067837 0.177239 -1.71602e-21)
(0.0315378 0.122626 0)
(0.374578 0.0477739 -5.75447e-21)
(0.179349 0.102469 0)
(0.406061 0.0271358 0)
(0.226923 0.0553966 4.84172e-21)
(-0.205028 0.162091 0)
(-0.182191 0.169392 0)
(-0.0140441 -0.275119 6.07186e-21)
(-0.14807 -0.327161 0)
(0.372051 -0.0804301 0)
(0.413886 0.0127959 -1.98188e-22)
(0.250424 0.0302676 0)
(0.249972 -0.0902936 0)
(0.436507 -0.0353159 1.19571e-21)
(0.433797 0.00128201 3.72955e-21)
(0.268948 0.00693887 0)
(0.294665 -0.041318 0)
(0.450155 -0.0142518 0)
(0.296819 -0.0142239 -3.78692e-21)
(-0.0618898 0.0214028 1.16027e-21)
(-0.093587 0.0340038 -1.46256e-21)
(-0.115582 0.0457405 4.79721e-21)
(-0.165365 0.0504337 0)
(-0.193707 0.0784077 0)
(-0.221526 0.0870608 -3.13368e-21)
(-0.241698 0.109631 -2.38041e-21)
(-0.15945 0.128447 0)
(0.0501805 0.0741367 3.36277e-21)
(-0.0485329 0.109344 0)
(0.12816 0.0387227 0)
(-0.0139299 0.0612786 -3.63715e-21)
(-0.259364 0.0947755 7.91291e-21)
(-0.229639 0.101417 -2.33682e-21)
(-0.0182965 -0.259253 -3.42556e-21)
(0.163476 -0.133719 7.72961e-21)
(0.134414 -0.151296 -6.04314e-21)
(-0.118622 -0.38056 1.71382e-21)
(-0.084298 -0.321708 -3.73231e-21)
(-0.0387845 -0.351908 2.45117e-22)
(0.0326814 -0.176048 -6.41742e-21)
(0.0319701 -0.145483 2.10243e-21)
(0.128393 -0.104427 3.2576e-21)
(0.104865 0.00732595 0)
(0.000916324 0.0322173 0)
(0.061575 -0.0875787 -3.59011e-21)
(0.161983 -0.053411 0)
(0.0721034 -0.0430635 -3.34887e-21)
(0.170482 -0.0203418 3.05382e-21)
(0.0325461 -0.0107674 4.65375e-21)
(-0.0928595 0.0148951 1.67264e-21)
(-0.133829 0.0227248 0)
(-0.159339 0.0312646 0)
(-0.201018 0.0356994 3.32388e-21)
(-0.231249 0.0522698 0)
(-0.257952 0.0521069 8.34737e-21)
(-0.279521 0.0658727 -7.12654e-21)
(-0.125607 0.0462744 0)
(-0.144813 0.0598051 -5.72115e-21)
(-0.225619 0.0754843 1.16521e-20)
(-0.204212 0.0328377 0)
(-0.283772 0.0635051 -7.53216e-21)
(-0.290356 0.0583352 -4.02259e-21)
(-0.0950189 -0.304385 0)
(-0.0829423 -0.237717 7.77774e-21)
(-0.0730541 -0.231451 0)
(-0.0677279 -0.311124 -5.30461e-22)
(-0.0958016 -0.312012 4.16623e-22)
(-0.115209 -0.228298 -7.98804e-21)
(-0.0776338 -0.176403 -7.34916e-21)
(-0.107559 -0.150279 9.7757e-21)
(-0.0590308 -0.106785 3.02373e-21)
(-0.12383 -0.0747709 -3.95686e-21)
(-0.0750743 -0.0481859 0)
(-0.100064 -0.0187936 -3.21692e-21)
(-0.184695 0.00629117 0)
(-0.116397 0.011807 0)
(-0.15725 0.0174874 -1.2988e-21)
(-0.185469 0.0224852 -5.08205e-21)
(-0.216209 0.0276358 4.35962e-21)
(-0.243005 0.0367197 -1.54861e-21)
(-0.259199 0.0378659 -1.98824e-21)
(-0.286741 0.0474446 6.28436e-21)
(-0.272503 0.0374324 -7.01879e-21)
(-0.290646 0.050381 8.55523e-21)
(-0.260886 0.0114731 0)
(-0.286844 0.0315242 -1.19947e-21)
(-0.300168 0.0506961 0)
(-0.291809 0.0465849 0)
(-0.0458328 -0.161491 -1.24464e-20)
(-0.09029 -0.233269 4.29239e-21)
(-0.111352 -0.240683 5.18581e-21)
(-0.127355 -0.271147 -7.15309e-22)
(-0.146188 -0.24178 6.59931e-22)
(-0.177408 -0.191301 -7.50441e-21)
(-0.182776 -0.154297 0)
(-0.201849 -0.100607 -9.4197e-21)
(-0.26105 0.0136437 -4.4218e-21)
(-0.234759 -0.0739398 6.85283e-21)
(-0.266267 -0.0179937 2.8205e-21)
(-0.126477 0.0100471 4.58058e-21)
(-0.270733 0.0443024 2.72556e-21)
(-0.160897 0.0154254 -3.27265e-21)
(-0.184262 0.0200876 -2.83036e-21)
(-0.208395 0.0268414 -6.12821e-21)
(-0.240901 0.0337342 1.37096e-21)
(-0.248629 0.0370703 -3.46752e-21)
(-0.271034 0.0379839 -2.71447e-21)
(-0.294523 0.0500614 6.78063e-22)
(-0.292395 0.0419141 1.24221e-21)
(-0.24959 0.0495354 4.84422e-21)
(-0.266393 0.0477965 2.01374e-21)
(-0.276343 0.053844 -1.28933e-21)
(-0.268638 0.0512114 -1.93483e-21)
(-0.217573 0.0553242 -6.70024e-21)
(-0.0362784 -0.0951599 0)
(-0.0601275 -0.150933 8.33004e-21)
(-0.161955 0.0581074 0)
(-0.197513 0.0482175 4.39243e-21)
(-0.105572 0.0550042 8.4761e-21)
(-0.128427 0.0517387 -5.5969e-21)
(-0.0824671 -0.163738 0)
(-0.123691 -0.201374 -4.92951e-21)
(-0.160066 -0.178252 1.50795e-20)
(-0.196023 0.0247076 -5.85223e-21)
(-0.222958 0.00699118 4.6395e-21)
(-0.171122 -0.139798 -1.07556e-20)
(-0.218328 -0.0681232 1.14434e-22)
(-0.204216 -0.0414581 -9.46751e-21)
(-0.12548 0.0100885 0)
(-0.242604 0.0448884 0)
(-0.224049 0.0337119 2.6239e-22)
(-0.228523 0.0395433 -3.58127e-22)
(-0.155508 0.0173538 -5.08823e-21)
(-0.181068 0.0227138 5.41097e-21)
(-0.19721 0.0269177 4.69243e-21)
(-0.258785 0.0594054 1.84273e-21)
(-0.251008 0.0591252 -4.18964e-22)
(-0.222682 0.0666283 3.65061e-21)
(-0.204384 0.0661412 1.33001e-21)
(-0.235284 0.0488397 -5.51913e-21)
(-0.239693 0.0615843 1.91947e-23)
(-0.246512 0.0542996 4.71266e-21)
(-0.179611 0.0716653 2.30488e-21)
(-0.156519 0.0706777 -7.51498e-21)
(-0.105341 0.0650962 2.88365e-21)
(-0.128294 0.0712007 2.38483e-21)
(-0.0839769 0.0633529 -3.36139e-21)
(-0.0500987 0.0476193 0)
(-0.0661693 0.0532067 2.79274e-21)
(-0.0798488 0.0494421 -2.39963e-22)
(-0.0720994 0.042894 0)
(-0.0220949 -0.0499304 -4.2263e-21)
(-0.0444055 -0.0853458 4.13503e-21)
(-0.0536297 -0.0916031 2.90409e-21)
(-0.0875705 -0.122943 0)
(-0.0929629 0.029183 1.02228e-20)
(-0.122971 0.030897 0)
(-0.148238 0.0171727 5.67679e-21)
(-0.110553 -0.102242 1.31314e-22)
(-0.133708 -0.0226677 1.53921e-21)
(-0.13923 -0.109504 -4.24165e-21)
(-0.16173 -0.0485661 8.50832e-21)
(-0.0120228 -0.0242983 -4.98979e-22)
(-0.0220933 -0.0397702 0)
(-0.115502 0.00921426 0)
(-0.0782306 0.00314775 -5.22117e-22)
(-0.0944659 0.0041385 5.26325e-22)
(-0.203222 0.0379987 -3.03785e-21)
(-0.212388 0.0466777 2.66949e-21)
(-0.136965 0.0142514 0)
(-0.168522 0.0220275 -2.48708e-21)
(-0.182728 0.0302895 2.98808e-21)
(-0.178119 0.0755832 1.24433e-21)
(-0.215578 0.0664134 -2.02999e-21)
(-0.209198 0.0708724 -2.57257e-21)
(-0.197534 0.0522927 -3.43905e-21)
(-0.19732 0.0622935 6.81024e-22)
(-0.157556 0.0739912 0)
(-0.131833 0.0743989 0)
(-0.119273 0.0732272 0)
(-0.0947095 0.0705211 -2.96966e-21)
(-0.0769998 0.0649718 -1.66918e-21)
(-0.0592926 0.0592649 3.97808e-21)
(-0.0441823 0.0490227 0)
(-0.00673864 0.0140208 0)
(-0.00428448 0.00952156 -6.63895e-22)
(-0.0123907 0.0241001 3.57811e-21)
(-0.0198774 0.0322444 -3.1366e-21)
(-0.0317617 0.0427792 0)
(-0.0223609 0.0306945 -5.83649e-21)
(-0.0340391 0.0372492 3.22146e-23)
(-0.00926591 0.0153787 0)
(-0.0126827 0.0196957 -4.58539e-21)
(-0.00423469 0.00687606 0)
(-0.0358263 0.0332434 1.09088e-23)
(-0.0513359 0.0371671 1.69266e-23)
(-0.0503999 0.0287537 3.55417e-21)
(-0.0793524 0.024328 -4.3339e-21)
(-0.0312514 -0.043839 8.85406e-21)
(-0.0524482 -0.0597003 -1.86394e-20)
(-0.0771532 -0.0588415 3.97042e-21)
(-0.0750428 0.00931548 -2.28379e-21)
(-0.083464 -0.0329989 8.41222e-21)
(-0.101206 -0.0187279 -5.91093e-21)
(-0.0060333 -0.00873019 0)
(-0.011291 -0.0162315 0)
(-0.0139449 -0.017383 -3.66066e-21)
(-0.0275803 -0.0269738 -5.35651e-21)
(-0.00361398 0.00690551 5.61729e-22)
(-0.107076 0.00893389 1.27937e-21)
(-0.0635643 0.000508175 0)
(-0.0796533 0.00224259 -1.11946e-21)
(-0.132814 0.0256716 1.5235e-21)
(-0.157023 0.032772 -4.5166e-21)
(-0.170864 0.0482069 -7.41044e-23)
(-0.145973 0.0598536 4.07215e-21)
(-0.163025 0.0668288 -4.77267e-21)
(-0.15145 0.0717448 3.24644e-21)
(-0.0879144 0.070315 -3.91748e-21)
(-0.114798 0.0691763 6.0832e-23)
(-0.112135 0.0733169 1.10986e-21)
(-0.0326846 0.0477775 4.01682e-21)
(-0.0499576 0.0577522 -3.96095e-23)
(-0.0697496 0.0639478 1.95333e-21)
(-0.00975461 0.0249345 1.74961e-21)
(-0.0240882 0.0404216 -2.12366e-21)
(-0.00549162 0.0162763 -1.57259e-21)
(-0.0142352 0.0186372 5.21875e-21)
(-0.0224728 0.0234829 0)
(-0.00439496 0.00667761 4.10478e-21)
(-0.00639252 0.00911146 -7.25579e-21)
(-0.00203007 0.00230882 0)
(-0.00223853 -0.00200799 0)
(-0.00426912 -0.00458219 -1.15917e-21)
(-0.0229232 0.0196313 5.24035e-21)
(-0.0352779 0.0213673 -1.25936e-23)
(-0.0351976 0.0145046 -1.07903e-20)
(-0.0537741 0.00796638 1.08998e-20)
(-0.0332627 -0.0175173 3.82399e-21)
(-0.0462145 -0.0163765 -3.10217e-21)
(-0.0408243 -0.00195528 -3.81534e-21)
(-0.0061083 -0.00546078 7.19513e-22)
(-0.0115982 -0.0089624 2.04328e-21)
(-0.0187406 -0.00802156 1.41272e-21)
(-0.00441348 0.0123528 -3.0205e-21)
(-0.02603 0.0442531 0)
(-0.0549236 0.0570131 0)
(-0.083788 0.0320788 3.95185e-21)
(-0.0976916 0.0491648 -2.76461e-21)
(-0.0903803 0.0596667 0)
(-0.0200656 0.00233144 3.10909e-23)
(-0.0563839 0.0132234 0)
(-0.00891925 0.0276482 -1.02634e-22)
(-0.00128239 -0.000611653 -6.10048e-22)
(-0.000593336 0.000207046 3.00021e-21)
(-0.00811472 0.00896288 7.49335e-21)
(-0.0128013 0.012116 0)
(-0.00169554 0.00180943 -3.39756e-21)
(-0.00330752 0.00341329 -1.07886e-20)
(-0.000669652 -5.8712e-05 5.95562e-21)
(-0.00191399 -0.000968023 4.22809e-22)
(-0.00538695 -0.0031304 0)
(-0.0140399 0.00777909 0)
(-0.0222401 0.00884658 0)
(-0.0244769 0.00100239 0)
(-0.00752683 -0.00251186 4.82499e-21)
(-0.0148231 -0.00405044 -4.12284e-21)
(-0.0167529 0.000483272 0)
(-0.00117836 0.00887925 0)
(-0.00142507 -0.00037357 2.72818e-21)
(5.00675e-05 0.000552008 -6.8427e-21)
(-9.61489e-05 0.000431596 1.19107e-20)
(-0.000366346 0.000158661 -7.19876e-21)
(0.000255136 0.000440252 -2.34319e-21)
(0.000170476 0.000278137 0)
(-0.00335405 0.00251628 3.52076e-21)
(-0.00651185 0.00365147 0)
(-0.000306696 -0.000536056 0)
(-0.00085808 0.000108409 0)
(-8.18222e-05 -0.00107821 -1.29596e-21)
(-0.00209222 -0.000543316 2.24044e-21)
(-0.00415781 -0.000806335 0)
(-0.00381354 0.000257866 6.7794e-21)
(-0.00524732 0.00227058 1.79238e-21)
(-0.00661108 0.00185609 -6.76109e-21)
(-0.000167424 0.000163511 0)
(-0.000878864 7.02218e-05 5.28965e-21)
(0.000363365 0.000308855 8.57902e-21)
(0.000210718 0.000258248 -9.73096e-21)
(0.000295898 0.000142378 -1.74694e-22)
(0.000453165 0.000228557 7.24747e-21)
(-0.000416601 -0.00014129 1.45483e-21)
(-0.00115687 0.000467902 -1.09093e-21)
(0.000282987 -0.00107906 -8.37839e-21)
(0.000275446 -0.00105879 1.14485e-20)
(0.000216078 -0.000753477 0)
(-0.000631141 0.000274487 -5.36878e-21)
(-0.00139677 0.000699667 -7.85798e-21)
(-0.00044321 0.00038825 1.16504e-20)
(-0.000309354 0.000179697 0)
(0.000497336 -0.000705727 0)
(0.000293562 -0.000441307 4.46683e-21)
(0.000389726 0.000250418 3.36399e-21)
(0.000190565 0.000305126 -5.9658e-21)
(0.000553204 0.000171104 -1.30832e-22)
(0.000591728 0.000223439 1.60308e-24)
(0.000677099 -0.000527074 0)
(0.000683981 -0.00048295 1.95358e-21)
(0.000609142 -9.86447e-05 -1.68769e-21)
(0.000629727 0.000178724 -3.53511e-24)
(0.000768761 -4.92428e-05 8.01029e-22)
(0.000438206 8.62352e-05 6.33318e-21)
(0.000481277 -0.000181315 -5.92097e-21)
(0.000777545 -0.000302242 0)
(0.000766649 0.000115465 -8.84799e-21)
(0.000801403 0.000134305 4.21822e-21)
(0.000890918 3.99627e-05 4.49061e-21)
(0.000890456 -0.00013272 0)
(0.000884406 -8.02216e-05 -4.91977e-21)
)
;

boundaryField
{
    movingWall
    {
        type            fixedValue;
        value           uniform (1 0 0);
    }
    fixedWalls
    {
        type            noSlip;
    }
    frontAndBack
    {
        type            empty;
    }
    defaultFaces
    {
        type            empty;
    }
}


// ************************************************************************* //
