/*--------------------------------*- C++ -*----------------------------------*\
  =========                 |
  \\      /  F ield         | OpenFOAM: The Open Source CFD Toolbox
   \\    /   O peration     | Website:  https://openfoam.org
    \\  /    A nd           | Version:  8
     \\/     M anipulation  |
\*---------------------------------------------------------------------------*/
FoamFile
{
    version     2.0;
    format      ascii;
    class       volVectorField;
    location    "0.085";
    object      U;
}
// * * * * * * * * * * * * * * * * * * * * * * * * * * * * * * * * * * * * * //

dimensions      [0 1 -1 0 0 0 0];

internalField   nonuniform List<vector> 
656
(
(0.743372 0.0565316 -9.65467e-25)
(0.927889 0.0140691 1.86666e-24)
(0.954788 -0.00127375 0)
(-0.0910749 0.118994 2.40002e-23)
(0.556742 0.0977245 1.12098e-23)
(0.841242 0.000939744 0)
(-0.0571798 0.0672276 -4.93902e-23)
(-0.0145962 0.018846 9.85104e-24)
(0.968227 -0.000150839 0)
(-0.000504611 0.138601 -2.37828e-24)
(-0.00304959 0.193131 -7.83495e-23)
(-0.117738 0.172053 0)
(0.376006 0.139834 1.00526e-23)
(0.715019 0.00930684 0)
(0.890989 0.00127448 -1.70667e-22)
(0.906566 0.000583097 4.77898e-23)
(0.00104043 0.0823432 9.70511e-24)
(0.00137426 0.0267217 0)
(0.971852 -7.63389e-05 -3.43357e-23)
(0.913661 0.00029855 -1.43718e-22)
(-0.0123884 0.0928733 7.71104e-23)
(-0.00523408 0.0628721 0)
(-0.0239222 0.125115 1.33361e-24)
(-0.00789617 0.242543 1.53982e-22)
(-0.136115 0.223437 -1.67657e-22)
(0.210343 0.18042 -2.26587e-23)
(0.577674 0.0245875 0)
(0.8007 0.00637691 2.66449e-22)
(0.829494 0.0030322 -8.91623e-23)
(-0.00144235 0.0356645 0)
(-0.000151565 0.0114448 0)
(0.916986 0.000158356 5.13466e-23)
(0.973373 -4.69474e-05 -3.66607e-23)
(0.842959 0.0016174 1.95816e-22)
(0.849424 0.000810456 -5.18089e-23)
(0.85403 6.348e-05 -1.08889e-22)
(-0.00677975 0.0608905 -1.05381e-22)
(-0.00280708 0.0409242 1.7071e-23)
(-0.0137926 0.0825098 -1.88325e-22)
(-0.0408484 0.158564 -1.577e-22)
(-0.01671 0.28282 1.66501e-22)
(-0.143742 0.269547 -4.77706e-24)
(0.0686489 0.217917 4.55154e-22)
(0.433182 0.0474137 0)
(0.696558 0.0162323 0)
(0.739381 0.00802644 -3.6982e-22)
(-0.000821629 0.0230279 -5.40253e-24)
(-0.000128818 0.00732299 0)
(0.854942 -0.000883155 1.20144e-22)
(0.919452 2.84513e-05 -2.78104e-23)
(0.974008 -2.02068e-05 4.92918e-24)
(0.759769 0.00435524 0)
(0.769764 0.00218542 0)
(0.776841 0.00015198 -1.06666e-22)
(0.778386 -0.00237206 4.59706e-22)
(0.763626 -0.00604318 0)
(-0.0103745 0.0366042 2.00131e-22)
(-0.00502145 0.0257397 2.95145e-22)
(-0.00202819 0.0165172 -2.87514e-22)
(-0.0250269 0.104803 -1.85263e-22)
(-0.0193443 0.0489368 5.84787e-22)
(0.28681 0.079672 -1.32799e-22)
(0.57847 0.0319868 1.75137e-22)
(0.6352 0.0165801 -5.20767e-22)
(-0.000553536 0.00884745 4.53702e-23)
(-6.70891e-05 0.0025618 6.0905e-23)
(0.84486 -0.00224244 -2.5466e-22)
(0.919999 -0.00014638 8.54502e-23)
(0.974687 1.29033e-05 5.47827e-24)
(0.726767 -0.0151979 -1.16791e-23)
(0.662692 0.00911911 0)
(0.676456 0.00466442 1.93316e-22)
(0.686385 0.000386337 2.04132e-22)
(0.688969 -0.00481307 -8.82331e-22)
(0.66971 -0.012543 2.27279e-22)
(-0.00839882 0.0139349 8.88421e-22)
(-0.00405365 0.00913814 -6.83449e-24)
(-0.00182771 0.00550515 0)
(-0.000643612 0.00295305 1.0577e-22)
(0.447786 0.055828 0)
(0.516951 0.030368 6.66113e-22)
(-8.94481e-05 0.00127333 -1.00135e-22)
(5.53251e-05 0.000241392 -3.08628e-23)
(0.604785 -0.0240905 4.71813e-22)
(0.820259 -0.00592583 1.49694e-22)
(0.914484 -0.000374938 0)
(0.97503 4.19896e-05 -5.28356e-23)
(0.619972 -0.0302309 -2.88771e-22)
(0.468208 -0.0472382 7.26193e-22)
(0.251479 -0.190757 -8.79081e-22)
(0.550825 0.0170802 0)
(0.568149 0.00874854 4.66271e-23)
(0.581237 0.000992408 -1.45194e-22)
(0.585538 -0.00871518 5.11886e-22)
(0.562577 -0.0231807 -8.69611e-22)
(-0.0147912 0.0062642 3.73776e-22)
(-0.00924718 0.00306671 -3.98854e-22)
(-0.00537226 0.00139792 -1.97735e-22)
(-0.00279647 0.000480317 3.91349e-22)
(-0.00116584 4.38418e-05 4.713e-23)
(-0.000203191 -6.20621e-05 -2.84976e-23)
(-0.136728 -0.250241 5.90066e-23)
(0.411944 -0.147966 -6.13836e-23)
(0.732778 -0.00901639 -7.95846e-22)
(0.901186 -0.00112448 0)
(0.973746 0.000109574 0)
(0.49972 -0.0539483 5.52146e-22)
(0.325512 -0.0810142 -2.7733e-22)
(0.106282 -0.230035 1.02582e-22)
(-0.141409 -0.298198 1.38428e-21)
(-0.0465804 0.0112551 0)
(-0.034021 0.00583954 1.86863e-22)
(-0.0235914 0.00285793 -6.59977e-22)
(-0.0149878 0.00114531 1.84041e-22)
(-0.00792712 0.000287614 -4.38527e-23)
(-0.00212803 2.17921e-05 -2.72268e-23)
(-0.00754397 -0.289029 0)
(-0.120665 -0.194926 0)
(0.582914 -0.103403 4.88166e-22)
(0.850386 -0.000878691 -3.99584e-23)
(0.970606 0.000203289 -1.0304e-22)
(-0.0155572 -0.332919 -1.64648e-21)
(-0.0760016 0.0100105 0)
(-0.0568624 0.00552752 1.93151e-22)
(-0.0403703 0.00276358 -1.41146e-24)
(-0.0262672 0.00117178 9.54887e-23)
(-0.0142712 0.00036038 -4.48734e-23)
(-0.00411641 7.18027e-05 0)
(-0.0276219 -0.164274 -5.51166e-22)
(-0.00296278 -0.233228 0)
(-0.094997 -0.136206 5.08316e-22)
(0.75789 -0.0597746 0)
(0.956554 0.00135216 7.64117e-23)
(-0.0466781 -0.205094 0)
(-0.0980844 0.0082897 0)
(-0.0741665 0.00460895 1.20078e-22)
(-0.0531752 0.00234377 -3.48152e-22)
(-0.0349417 0.0010281 1.12646e-22)
(-0.0192397 0.000345412 5.03484e-23)
(-0.00578431 8.89847e-05 -1.68739e-23)
(-0.015655 -0.119026 2.82625e-22)
(-0.0145372 -0.123351 0)
(-0.000248192 -0.169217 -4.45518e-22)
(-0.0605237 -0.0776122 4.30418e-22)
(0.931395 -0.0147218 0)
(-0.0284336 -0.148592 0)
(-0.107004 0.007242 1.53155e-22)
(-0.0810004 0.00408762 -1.47862e-22)
(-0.0581643 0.00207793 1.43073e-22)
(-0.038291 0.000905981 -2.73888e-22)
(-0.0211551 0.000304641 3.76655e-22)
(-0.00650421 7.86169e-05 -5.02186e-23)
(-0.0133573 -0.0678594 2.43769e-22)
(-0.00771821 -0.0890976 -5.22016e-22)
(-0.00596347 -0.0840661 1.52074e-22)
(0.00181256 -0.100771 -4.6198e-22)
(-0.014189 -0.0214027 1.30993e-23)
(-0.0241148 -0.0868517 0)
(-0.0154614 -0.0452152 -5.49846e-23)
(-0.107963 0.00780873 -1.88582e-22)
(-0.0816238 0.00492881 7.6012e-22)
(-0.0586937 0.00264435 -7.25765e-22)
(-0.0387752 0.0011399 0)
(-0.0215134 0.000351538 0)
(-0.00671224 7.27359e-05 -5.509e-24)
(-0.00849428 -0.0350815 1.17253e-22)
(-0.00666782 -0.0497927 3.44443e-24)
(-0.00302973 -0.0605429 3.97954e-22)
(-0.00125803 -0.0475665 -1.49542e-22)
(0.00233743 -0.0310267 0)
(-0.00873834 -0.0196304 8.91156e-22)
(-0.0632758 0.00409141 8.29102e-22)
(-0.0414411 0.00257067 -8.57306e-22)
(-0.0227753 0.000908313 0)
(-0.00700816 0.000157902 -7.76627e-24)
(-0.00480651 -0.0146289 -2.36315e-22)
(-0.00418797 -0.0254848 -9.16753e-23)
(-0.00273023 -0.0332928 1.89004e-22)
(-0.000643014 -0.0342509 -1.29325e-22)
(0.000182381 -0.014365 4.94292e-23)
(-0.00447433 -0.00526429 0)
(-0.00270593 0.00320072 -1.02406e-21)
(-0.0505269 0.00118002 0)
(-0.0176843 0.00039381 -2.71408e-23)
(-0.00152197 0.000804078 0)
(-0.00238143 -0.00358804 -2.4056e-22)
(-0.00234511 -0.0102337 -4.59276e-22)
(-0.00172134 -0.0168629 -6.24875e-23)
(-0.000724381 -0.0186273 1.27155e-22)
(7.65235e-05 -0.0106533 -4.96195e-23)
(-0.00108016 -0.000901969 2.08811e-21)
(-0.00130621 0.00154781 2.17906e-21)
(-0.00310776 0.00369364 7.0207e-23)
(-0.000132294 0.00198923 -4.81421e-22)
(-0.000749111 0.0010482 -9.8246e-25)
(-0.00111836 -0.00225127 1.24587e-22)
(-0.00095835 -0.0065367 3.71986e-22)
(-0.000484001 -0.00935145 7.62148e-24)
(-6.56822e-05 -0.00583927 -2.27909e-23)
(-0.000147362 -0.00257535 -1.88357e-24)
(-0.00045327 -0.00141138 -1.74693e-21)
(-0.000547663 0.000678803 -5.26919e-22)
(-0.00136137 0.00157869 0)
(-0.00319368 0.00914379 1.51722e-21)
(0.000389177 0.00150987 -2.58748e-22)
(-4.00795e-06 0.00176482 2.56504e-22)
(-0.000314476 0.0010588 1.28438e-22)
(-0.000440204 -0.00126604 0)
(-0.000272121 -0.00350602 -1.2192e-22)
(-6.47742e-05 -0.00293401 1.71268e-23)
(0.000229815 -0.00282394 8.27434e-22)
(1.30079e-05 -0.00241828 3.33751e-22)
(-0.000162168 -0.0014622 1.96694e-22)
(-0.000173904 0.000193231 5.36032e-23)
(-0.000334933 0.000545786 -6.14604e-23)
(-0.000459807 0.00212022 1.0924e-21)
(0.000310213 0.000534718 1.08136e-21)
(0.000248367 0.00126922 -4.0476e-22)
(2.98062e-05 0.00143259 -2.63975e-22)
(-0.000107173 0.000883788 -1.28486e-22)
(-0.00011584 -0.000584139 0)
(-3.96755e-05 -0.00106222 -1.12742e-23)
(0.000527969 -0.0020585 0)
(0.00018502 -0.00240433 -2.86303e-22)
(4.71943e-05 -0.00200875 -9.86502e-22)
(-3.76968e-05 -0.00121448 3.2149e-22)
(-2.21831e-05 -2.84238e-05 -3.58209e-22)
(-1.24987e-05 1.19397e-05 9.65592e-24)
(0.000532011 0.000192035 -4.69797e-22)
(0.000171499 0.000398886 7.16204e-22)
(0.000139504 0.000980602 -6.92981e-22)
(2.76347e-05 0.00103596 1.32346e-22)
(-1.72673e-05 0.000583909 0)
(-1.10008e-05 -0.000141967 1.11475e-23)
(0.000388879 -0.000698731 0)
(0.000316775 -0.0016961 5.50365e-22)
(0.000115031 -0.00187517 7.1644e-22)
(3.78183e-05 -0.00146578 9.39678e-22)
(8.23737e-06 -0.000791204 -3.33799e-22)
(9.77964e-06 -5.50573e-05 -2.20474e-23)
(0.0012053 0.00027728 -5.60812e-22)
(0.00037838 0.000104419 0)
(8.36998e-05 0.000273281 5.14328e-22)
(6.48644e-05 0.000678611 0)
(1.68358e-05 0.000614463 0)
(6.22726e-06 0.000211513 0)
(0.000718643 -0.000234836 6.27186e-22)
(0.000209868 -0.000524488 -5.69271e-22)
(0.000168852 -0.00128758 -5.60027e-22)
(5.82721e-05 -0.00130843 -4.18077e-22)
(2.38481e-05 -0.00087209 -4.34759e-22)
(1.31872e-05 -0.000279329 1.31222e-23)
(0.00168579 0.000145642 0)
(0.000961134 0.000159167 1.40554e-22)
(0.000249753 5.15469e-05 0)
(3.23364e-05 0.000167267 1.98721e-27)
(2.19676e-05 0.000385191 0)
(8.6712e-06 0.000196641 -8.98034e-23)
(0.001834 -2.67003e-05 0)
(0.00156402 -0.000258232 -5.66059e-22)
(0.000522139 -0.000131911 -1.57989e-22)
(9.94197e-05 -0.000360088 2.91849e-22)
(7.56635e-05 -0.000877372 -4.14964e-22)
(2.4536e-05 -0.00075001 -1.31463e-22)
(1.22925e-05 -0.000280615 9.15685e-23)
(0.00135331 8.23507e-05 -1.88764e-23)
(0.000715432 8.24681e-05 -2.10202e-22)
(0.000149268 2.00332e-05 0)
(6.31677e-06 8.30049e-05 -1.0821e-22)
(5.51665e-06 0.000112631 9.05925e-23)
(0.00147054 -1.80389e-05 2.09892e-24)
(0.00124714 -0.000151864 6.35707e-22)
(0.000352503 -6.6031e-05 -4.72299e-27)
(3.77752e-05 -0.000221144 1.34923e-25)
(2.46146e-05 -0.000490488 -2.65275e-22)
(9.49802e-06 -0.000226829 8.36337e-23)
(0.00101766 4.25555e-05 1.4857e-22)
(0.00048312 3.63752e-05 1.02542e-22)
(7.34126e-05 3.85815e-06 -1.26143e-22)
(-1.2212e-06 1.91379e-05 2.30053e-23)
(0.00110576 -1.07234e-05 2.0944e-24)
(0.000931175 -8.12708e-05 -1.40607e-22)
(0.000215829 -2.61351e-05 4.54169e-22)
(7.22455e-06 -0.000110364 -2.12769e-22)
(6.01096e-06 -0.000139079 3.40354e-26)
(0.000696049 1.89736e-05 0)
(0.00027136 1.19818e-05 1.13807e-22)
(1.73664e-05 -1.10274e-06 7.96668e-23)
(0.000756815 -5.78775e-06 0)
(0.000631472 -3.70948e-05 -2.057e-22)
(0.000108917 -5.34218e-06 3.95909e-22)
(-1.46364e-06 -2.55789e-05 4.39588e-23)
(0.000398289 6.50612e-06 -9.70975e-25)
(8.26739e-05 2.82868e-06 -1.43009e-22)
(0.000433586 -2.79649e-06 9.69712e-25)
(0.000356507 -1.29646e-05 -1.14033e-22)
(2.67333e-05 1.18693e-06 1.12934e-22)
(0.00012896 1.65472e-06 4.33797e-23)
(0.000140669 -1.23307e-06 0)
(0.000109492 -3.58812e-06 -1.09967e-23)
(-0.142805 0.304015 2.22384e-21)
(-0.0269627 0.258916 5.09922e-22)
(-0.0419225 0.128297 0)
(-0.0753956 0.189539 2.78623e-21)
(-0.0629118 0.19421 -2.94436e-21)
(-0.073022 0.268242 0)
(-0.0373496 0.311078 0)
(-0.0980452 0.353175 -1.02569e-21)
(-0.0849302 0.314173 0)
(-0.0388409 0.266567 -1.88531e-21)
(0.152159 0.126701 4.23772e-21)
(-0.0955074 0.278837 0)
(-0.03381 0.0636955 -3.65697e-22)
(-0.0560702 0.10525 0)
(-0.0162072 0.0192656 -3.81809e-21)
(-0.0385987 0.0469829 3.90722e-21)
(-0.0831657 0.121715 -2.27027e-21)
(-0.114796 0.159415 0)
(-0.0954014 0.203483 0)
(-0.119101 0.24024 6.18362e-22)
(-0.10878 0.295516 0)
(-0.0974964 0.289536 1.95869e-21)
(-0.0152742 0.19448 2.36968e-21)
(0.0946772 0.155501 -5.71835e-21)
(0.302808 0.0912267 1.1234e-21)
(-0.149953 0.235269 -5.90024e-22)
(-0.140543 0.252469 0)
(-0.0215698 0.0120702 -3.15874e-21)
(-0.0491874 0.0286521 8.65326e-22)
(-0.0607813 0.0521561 7.20346e-22)
(-0.0913819 0.081873 2.30837e-21)
(-0.121538 0.0806729 -4.44499e-21)
(-0.167505 0.115469 -3.93327e-21)
(-0.159415 0.156947 -3.00645e-21)
(-0.184491 0.185495 5.63124e-21)
(-0.130934 0.208746 -1.64175e-21)
(-0.0600028 0.184082 -1.71406e-21)
(0.0433089 0.128478 0)
(0.387487 0.0504155 -5.74685e-21)
(0.190368 0.106436 0)
(0.423924 0.0298133 0)
(0.243698 0.0593228 4.83684e-21)
(-0.20681 0.17288 0)
(-0.178849 0.17987 0)
(-0.0108476 -0.277365 6.03709e-21)
(-0.146114 -0.33037 0)
(0.386542 -0.0835111 0)
(0.436601 0.0148333 -1.97023e-22)
(0.273595 0.0341745 0)
(0.269518 -0.0944406 0)
(0.456527 -0.037644 1.1832e-21)
(0.458426 0.00179121 3.69632e-21)
(0.296577 0.00855224 0)
(0.320018 -0.0442475 0)
(0.473851 -0.015263 0)
(0.325093 -0.0149195 -3.75314e-21)
(-0.063956 0.0225517 1.14952e-21)
(-0.0974189 0.0360227 -1.44531e-21)
(-0.120521 0.0485927 4.75467e-21)
(-0.173508 0.0548066 0)
(-0.202303 0.0851148 0)
(-0.231691 0.095473 -3.1048e-21)
(-0.249597 0.120085 -2.36309e-21)
(-0.152318 0.139203 0)
(0.0674787 0.0804183 3.34717e-21)
(-0.0352857 0.118035 0)
(0.151947 0.0435649 0)
(0.00479531 0.0682065 -3.61974e-21)
(-0.267032 0.10639 7.84727e-21)
(-0.228673 0.113313 -2.31886e-21)
(-0.0112104 -0.264236 -3.40716e-21)
(0.172353 -0.13773 7.67052e-21)
(0.147212 -0.156982 -6.00212e-21)
(-0.114827 -0.387006 1.70474e-21)
(-0.0771438 -0.329036 -3.71048e-21)
(-0.0361743 -0.360386 2.43751e-22)
(0.0477251 -0.183753 -6.36435e-21)
(0.051133 -0.153933 2.08615e-21)
(0.149727 -0.110151 3.22715e-21)
(0.134001 0.0100564 0)
(0.025887 0.0381264 0)
(0.0865113 -0.0943337 -3.55657e-21)
(0.189488 -0.0572679 0)
(0.101094 -0.0463001 -3.31618e-21)
(0.200534 -0.0211015 3.02412e-21)
(0.0615331 -0.00977577 4.60934e-21)
(-0.0973007 0.0161602 1.65292e-21)
(-0.141108 0.0248623 0)
(-0.16821 0.0343268 0)
(-0.213582 0.0401075 3.28341e-21)
(-0.245118 0.0588371 0)
(-0.274294 0.0598903 8.26241e-21)
(-0.294492 0.0759766 -7.06126e-21)
(-0.108259 0.0542693 0)
(-0.132026 0.0690189 -5.67658e-21)
(-0.222719 0.0874074 1.15629e-20)
(-0.195123 0.0400564 0)
(-0.292501 0.0752956 -7.47358e-21)
(-0.306171 0.0691394 -3.98623e-21)
(-0.085698 -0.315047 0)
(-0.0705407 -0.248575 7.72744e-21)
(-0.0719277 -0.243753 0)
(-0.0639329 -0.323048 -5.27585e-22)
(-0.0899597 -0.326033 4.14361e-22)
(-0.102164 -0.242419 -7.93624e-21)
(-0.0603412 -0.188506 -7.29073e-21)
(-0.0903628 -0.162639 9.69495e-21)
(-0.0371791 -0.116157 2.98966e-21)
(-0.103645 -0.0834649 -3.91714e-21)
(-0.0500341 -0.0527866 0)
(-0.0772227 -0.0178742 -3.18619e-21)
(-0.172128 0.0108949 0)
(-0.123471 0.013184 0)
(-0.167779 0.0198121 -1.28101e-21)
(-0.198093 0.0256508 -5.0198e-21)
(-0.232518 0.0320184 4.30489e-21)
(-0.261245 0.0426982 -1.53211e-21)
(-0.279705 0.0448637 -1.96661e-21)
(-0.30751 0.0567929 6.22748e-21)
(-0.277592 0.0468795 -6.94644e-21)
(-0.30105 0.0619506 8.46947e-21)
(-0.264019 0.0155247 0)
(-0.298747 0.0397577 -1.19023e-21)
(-0.321165 0.0618812 0)
(-0.314358 0.0565645 0)
(-0.0467887 -0.174294 -1.23694e-20)
(-0.089435 -0.248995 4.26681e-21)
(-0.109881 -0.258992 5.15499e-21)
(-0.121753 -0.288643 -7.1046e-22)
(-0.137728 -0.259306 6.55441e-22)
(-0.172234 -0.210028 -7.46635e-21)
(-0.17497 -0.170585 0)
(-0.195619 -0.112957 -9.32942e-21)
(-0.281275 0.017893 -4.39168e-21)
(-0.237522 -0.0819598 6.78736e-21)
(-0.273983 -0.018406 2.80128e-21)
(-0.135494 0.0115882 4.51753e-21)
(-0.294666 0.0530473 2.69733e-21)
(-0.173484 0.0179236 -3.22747e-21)
(-0.198935 0.0232815 -2.79434e-21)
(-0.226293 0.0312878 -6.05196e-21)
(-0.261505 0.0397385 1.35422e-21)
(-0.270895 0.0439426 -3.43183e-21)
(-0.294275 0.0460212 -2.6992e-21)
(-0.318235 0.0607694 6.72779e-22)
(-0.313224 0.0515519 1.23265e-21)
(-0.274836 0.0591618 4.81691e-21)
(-0.291149 0.0568425 1.99652e-21)
(-0.301954 0.0645222 -1.27921e-21)
(-0.294116 0.0611462 -1.91856e-21)
(-0.24241 0.064591 -6.67711e-21)
(-0.0389571 -0.105083 0)
(-0.0625012 -0.165988 8.27744e-21)
(-0.18307 0.0661242 0)
(-0.221449 0.055563 4.37741e-21)
(-0.120775 0.0615381 8.4773e-21)
(-0.146574 0.0581703 -5.59777e-21)
(-0.0860442 -0.181446 0)
(-0.125148 -0.22131 -4.90037e-21)
(-0.162279 -0.198658 1.5002e-20)
(-0.219426 0.0286128 -5.83721e-21)
(-0.245521 0.00874426 4.6204e-21)
(-0.179571 -0.157308 -1.06991e-20)
(-0.230489 -0.0769397 1.13788e-22)
(-0.222383 -0.0475242 -9.42586e-21)
(-0.135737 0.011771 0)
(-0.266242 0.0527985 0)
(-0.245169 0.0395963 2.59671e-22)
(-0.250753 0.0463437 -3.54415e-22)
(-0.169207 0.0200992 -5.02248e-21)
(-0.197276 0.026332 5.34142e-21)
(-0.215699 0.0314415 4.63401e-21)
(-0.284836 0.0701694 1.83082e-21)
(-0.276871 0.0697498 -4.16907e-22)
(-0.247386 0.0774306 3.63316e-21)
(-0.22823 0.0764805 1.32583e-21)
(-0.259225 0.0572868 -5.47572e-21)
(-0.264833 0.0718997 1.99901e-23)
(-0.271598 0.0638684 4.67546e-21)
(-0.201413 0.0821147 2.29948e-21)
(-0.176502 0.0804286 -7.50234e-21)
(-0.119855 0.0731962 2.8829e-21)
(-0.145061 0.0806239 2.3815e-21)
(-0.0957073 0.0709168 -3.36804e-21)
(-0.0575641 0.0524444 0)
(-0.075939 0.05898 2.79832e-21)
(-0.0918687 0.0547526 -2.40034e-22)
(-0.0834256 0.0470383 0)
(-0.0249321 -0.0547206 -4.19627e-21)
(-0.0490756 -0.0950141 4.10557e-21)
(-0.059506 -0.102589 2.88711e-21)
(-0.0951224 -0.138295 0)
(-0.107705 0.0317533 1.0204e-20)
(-0.141138 0.0342288 0)
(-0.168897 0.0188885 5.66236e-21)
(-0.121306 -0.1165 1.30633e-22)
(-0.152641 -0.0268249 1.53358e-21)
(-0.151435 -0.124328 -4.2194e-21)
(-0.179978 -0.0561359 8.46574e-21)
(-0.0139529 -0.0251665 -4.96204e-22)
(-0.025573 -0.0430853 0)
(-0.126002 0.0107815 0)
(-0.0850563 0.00384 -5.14552e-22)
(-0.102854 0.00502776 5.18698e-22)
(-0.223804 0.0441768 -3.00818e-21)
(-0.234482 0.0542629 2.64529e-21)
(-0.150075 0.016604 0)
(-0.184905 0.0256337 -2.45617e-21)
(-0.201142 0.035155 2.95873e-21)
(-0.199205 0.0864328 1.24116e-21)
(-0.23928 0.0767398 -2.0177e-21)
(-0.232763 0.0817403 -2.56042e-21)
(-0.21873 0.0602199 -3.409e-21)
(-0.219071 0.0716446 6.75998e-22)
(-0.176341 0.0843027 0)
(-0.148085 0.0843875 0)
(-0.134584 0.0828132 0)
(-0.107079 0.0793822 -2.97557e-21)
(-0.0874867 0.0727877 -1.67582e-21)
(-0.0674374 0.06616 3.98957e-21)
(-0.0505243 0.054243 0)
(-0.00780826 0.0145309 0)
(-0.00500031 0.00961307 -6.67878e-22)
(-0.0142646 0.0259837 3.59746e-21)
(-0.0228607 0.035053 -3.1536e-21)
(-0.0363441 0.0471463 0)
(-0.0258678 0.0329084 -5.85684e-21)
(-0.0393737 0.0403142 3.75492e-23)
(-0.0107524 0.0154355 0)
(-0.0146976 0.0201787 -4.59986e-21)
(-0.00493239 0.00587254 0)
(-0.041669 0.0354736 1.3551e-23)
(-0.0597459 0.0401229 2.05762e-23)
(-0.0589257 0.0304361 3.55591e-21)
(-0.092478 0.0259526 -4.32545e-21)
(-0.0363803 -0.0479455 8.81292e-21)
(-0.0604568 -0.0669814 -1.85481e-20)
(-0.088203 -0.0672157 3.95111e-21)
(-0.0877726 0.00901541 -2.28004e-21)
(-0.0965979 -0.0379664 8.37686e-21)
(-0.117174 -0.0226111 -5.88531e-21)
(-0.00689981 -0.00708574 0)
(-0.0130813 -0.0154601 0)
(-0.0161968 -0.0167648 -3.64655e-21)
(-0.0323221 -0.028329 -5.33373e-21)
(-0.00421467 0.00680738 5.65154e-22)
(-0.117802 0.0104123 1.25358e-21)
(-0.0697786 0.000824227 0)
(-0.0874981 0.00282379 -1.09678e-21)
(-0.146697 0.0292958 1.49046e-21)
(-0.173552 0.0375338 -4.45782e-21)
(-0.189328 0.0550472 -8.10652e-23)
(-0.162313 0.0678483 4.04891e-21)
(-0.181563 0.0761243 -4.75263e-21)
(-0.16906 0.0815054 3.23332e-21)
(-0.0990742 0.079144 -3.93071e-21)
(-0.12848 0.078156 6.07468e-23)
(-0.125915 0.082839 1.11158e-21)
(-0.0371314 0.0531446 4.04606e-21)
(-0.0566209 0.0645337 -4.42153e-23)
(-0.0786194 0.0718115 1.95872e-21)
(-0.0111592 0.02736 1.76765e-21)
(-0.0273562 0.0448929 -2.14114e-21)
(-0.00631025 0.0177601 -1.5888e-21)
(-0.0165695 0.0185396 5.23522e-21)
(-0.0262068 0.0239903 0)
(-0.00504066 0.00498509 4.11263e-21)
(-0.00739791 0.00750749 -7.26837e-21)
(-0.00222753 0.000334517 0)
(-0.00222388 0.000331385 0)
(-0.00450562 -0.00215489 -1.1554e-21)
(-0.0267814 0.0194255 5.2423e-21)
(-0.0413372 0.0217616 -1.58188e-23)
(-0.0412671 0.0142465 -1.0782e-20)
(-0.0632491 0.00757489 1.0884e-20)
(-0.0389575 -0.017935 3.80771e-21)
(-0.0543263 -0.0178038 -3.09013e-21)
(-0.047934 -0.00261608 -3.8081e-21)
(-0.0065475 -0.0030661 7.17178e-22)
(-0.0130969 -0.00712726 2.03319e-21)
(-0.0214443 -0.00661946 1.40881e-21)
(-0.00507082 0.0134524 -3.05321e-21)
(-0.029268 0.0495621 0)
(-0.0616458 0.0639635 0)
(-0.0931553 0.0360263 3.94697e-21)
(-0.108839 0.0553761 -2.76841e-21)
(-0.101073 0.0672055 0)
(-0.0222627 0.00259977 3.06212e-23)
(-0.062633 0.0148128 0)
(-0.0100257 0.0309581 -1.03652e-22)
(-0.000829152 0.0017614 -6.08664e-22)
(-0.000217454 0.0020486 2.99376e-21)
(-0.00929466 0.00687204 7.49976e-21)
(-0.0147088 0.0105711 0)
(-0.00154207 -0.00079243 -3.39872e-21)
(-0.0034453 0.000626237 -1.07878e-20)
(-0.000489276 -0.00230147 5.95605e-21)
(-0.00139582 0.00147381 4.21849e-22)
(-0.00537971 -0.000676551 0)
(-0.015899 0.00597516 0)
(-0.0257736 0.00784361 0)
(-0.0282706 0.000492477 0)
(-0.00745303 -0.000584943 4.81293e-21)
(-0.0162931 -0.00291915 -4.11252e-21)
(-0.0185741 0.000574315 0)
(-0.0013211 0.00993872 0)
(-0.000409793 0.00166586 2.7225e-21)
(0.000580103 0.00166815 -6.82893e-21)
(0.000651785 0.00195437 1.18869e-20)
(0.000635422 0.00178167 -7.18397e-21)
(0.000874809 0.00122641 -2.33877e-21)
(0.000468733 0.000635548 0)
(-0.00314204 -8.87448e-05 3.51874e-21)
(-0.00669353 0.00129196 0)
(0.000156579 -0.00293435 0)
(-0.000223313 -0.00243918 0)
(0.000225409 -0.00302222 -1.29477e-21)
(-0.000777954 0.00109889 2.23582e-21)
(-0.00308786 0.000834551 0)
(-0.00238783 0.000434763 6.76851e-21)
(-0.00463237 0.000682483 1.79024e-21)
(-0.00598534 0.00148012 -6.75078e-21)
(0.00116021 0.00146313 0)
(0.000773421 0.00130174 5.27914e-21)
(0.00124111 0.00107022 8.56215e-21)
(0.00148994 0.00124997 -9.71163e-21)
(0.000673572 0.000345534 -1.74315e-22)
(0.00121928 0.00065564 7.23279e-21)
(0.000782106 -0.00231904 1.45299e-21)
(0.000204459 -0.00132564 -1.08956e-21)
(0.000750265 -0.00229631 -8.36623e-21)
(0.000954106 -0.0026858 1.14318e-20)
(0.00119862 -0.00254127 0)
(0.00133499 0.000953139 -5.358e-21)
(0.000533693 0.00083216 -7.84286e-21)
(0.00172004 -5.54719e-06 1.1628e-20)
(0.00158762 -0.00102077 0)
(0.00107266 -0.00147838 0)
(0.0005836 -0.000820001 4.46027e-21)
(0.00197079 0.000841699 3.35733e-21)
(0.00209783 0.000794782 -5.95496e-21)
(0.00144433 0.000458117 -1.30425e-22)
(0.0019096 0.000597397 1.7897e-24)
(0.00158009 -0.00134361 0)
(0.00194978 -0.00163225 1.9505e-21)
(0.00220264 -0.00110377 -1.68503e-21)
(0.00255722 0.000271571 -4.16479e-24)
(0.00246056 -0.000550983 7.99862e-22)
(0.00247596 -0.000120442 6.32241e-21)
(0.00088252 -0.000391589 -5.91228e-21)
(0.00160515 -0.000761143 0)
(0.00201945 0.000250992 -8.83113e-21)
(0.0024501 0.000199212 4.21039e-21)
(0.00220558 -3.67472e-05 4.4837e-21)
(0.00189736 -0.000437538 0)
(0.00231357 -0.000458471 -4.91229e-21)
)
;

boundaryField
{
    movingWall
    {
        type            fixedValue;
        value           uniform (1 0 0);
    }
    fixedWalls
    {
        type            noSlip;
    }
    frontAndBack
    {
        type            empty;
    }
    defaultFaces
    {
        type            empty;
    }
}


// ************************************************************************* //
