/*--------------------------------*- C++ -*----------------------------------*\
  =========                 |
  \\      /  F ield         | OpenFOAM: The Open Source CFD Toolbox
   \\    /   O peration     | Website:  https://openfoam.org
    \\  /    A nd           | Version:  8
     \\/     M anipulation  |
\*---------------------------------------------------------------------------*/
FoamFile
{
    version     2.0;
    format      ascii;
    class       volScalarField;
    location    "2000";
    object      k;
}
// * * * * * * * * * * * * * * * * * * * * * * * * * * * * * * * * * * * * * //

dimensions      [0 2 -2 0 0 0 0];

internalField   nonuniform List<scalar> 
4109
(
0.0294931
0.0310436
0.0297415
0.0310131
0.0317424
0.0314665
0.0319628
0.0301485
0.0330108
0.032545
0.0325709
0.0333187
0.0298492
0.031691
0.032409
0.0337109
0.0334961
0.03351
0.0338681
0.0325536
0.0298998
0.0313755
0.0314093
0.0345923
0.0346237
0.0350342
0.0295891
0.0316263
0.0298767
0.0348557
0.0335083
0.0328084
0.0313739
0.031291
0.0322224
0.0351654
0.0350532
0.0361742
0.0318928
0.0298462
0.0315746
0.0317702
0.0302764
0.0355139
0.0341217
0.0954784
0.0479416
0.0334854
0.0329018
0.0312445
0.0322424
0.0358538
0.0366372
0.0379046
0.0336103
0.0317959
0.029364
0.0318971
0.0323663
0.0331466
0.0328775
0.121495
0.0367272
0.035103
0.0344441
0.0416783
0.0870465
0.0337479
0.032768
0.0324856
0.0393814
0.0373379
0.0425474
0.0413715
0.0411864
0.0341544
0.0340536
0.0326712
0.031161
0.0328944
0.0325822
0.0329289
0.0334803
0.0336137
0.038434
0.045247
0.100135
0.13104
0.132411
0.0379105
0.0375049
0.0358032
0.0351128
0.0345493
0.0384907
0.0665265
0.0337303
0.0325641
0.0427003
0.0410166
0.0398859
0.0429949
0.043713
0.0432582
0.0434024
0.0352868
0.0347663
0.0339336
0.0321075
0.0341316
0.0388427
0.0333684
0.0338816
0.0341181
0.0346741
0.138197
0.0527431
0.0664428
0.0893402
0.140017
0.137567
0.043286
0.0397092
0.0385823
0.036838
0.0361073
0.0354207
0.0344097
0.0669201
0.0344509
0.033811
0.043123
0.0417124
0.0448116
0.0440366
0.0455689
0.0443332
0.0359681
0.0356529
0.035573
0.0337215
0.0348146
0.0399895
0.0339471
0.0345554
0.0350242
0.0352689
0.124856
0.0734823
0.14077
0.0934746
0.143825
0.0504002
0.0405643
0.0394826
0.0376552
0.0368704
0.0361798
0.0354499
0.0343818
0.0614541
0.0331606
0.0426388
0.0412535
0.0456743
0.0437598
0.046447
0.0468461
0.0476455
0.0371339
0.036614
0.0363301
0.0345557
0.0357999
0.0412111
0.0347742
0.0354559
0.0356977
0.0363703
0.0857394
0.156849
0.0884571
0.147532
0.147752
0.0511633
0.038783
0.0397309
0.0378945
0.0361476
0.0370804
0.0356176
0.0673001
0.0340349
0.0409557
0.0420216
0.0451887
0.0433404
0.0464316
0.0480914
0.0477229
0.0507254
0.0379034
0.0376177
0.0376498
0.0361747
0.0360475
0.041432
0.035504
0.0361264
0.0367111
0.0370907
0.0882988
0.158451
0.154118
0.0931421
0.157209
0.0507704
0.0388934
0.0400826
0.0375247
0.0364925
0.0688138
0.0349181
0.0411787
0.0424252
0.0445454
0.0436488
0.0459791
0.0480246
0.0491898
0.051137
0.053491
0.0391802
0.0385744
0.0383979
0.0372316
0.0369124
0.0424607
0.0370112
0.0362537
0.0400883
0.0375824
0.0382753
0.0848924
0.16643
0.0967857
0.161532
0.163418
0.0516243
0.0392032
0.0399782
0.0378969
0.0722178
0.0353529
0.0415114
0.0424203
0.0449574
0.0439933
0.0463103
0.0473383
0.0495491
0.0514384
0.0529531
0.0570317
0.0401948
0.0393392
0.0387303
0.0410629
0.0372225
0.042882
0.0374982
0.0414014
0.0391362
0.0387238
0.173586
0.0846175
0.168887
0.100555
0.173543
0.0522171
0.178178
0.039002
0.0403519
0.0738791
0.0361575
0.0414868
0.0426747
0.0450578
0.0440028
0.0466196
0.0476818
0.0489256
0.0514042
0.0533722
0.0562288
0.0566062
0.0607034
0.0393254
0.0407661
0.0390696
0.0422313
0.042458
0.0379198
0.0437153
0.0391343
0.0404115
0.0397641
0.0849709
0.181502
0.17559
0.0991194
0.179858
0.0529377
0.192185
0.184677
0.201925
0.165711
0.185362
0.156429
0.0883273
0.0370703
0.040315
0.0423384
0.0432154
0.0439437
0.0454345
0.046757
0.0477076
0.0491797
0.0578432
0.0504672
0.0532129
0.0559856
0.0613238
0.0648614
0.0632742
0.0693733
0.0416362
0.0411542
0.0434468
0.0438744
0.0414032
0.039233
0.0452218
0.0398999
0.0409901
0.0874892
0.19426
0.181021
0.0528659
0.291805
0.259642
0.201859
0.172462
0.195364
0.221414
0.0754762
0.0759825
0.0811417
0.159978
0.149359
0.151417
0.148046
0.159317
0.15055
0.038721
0.045233
0.0452827
0.0459878
0.0606697
0.0470052
0.0479489
0.0493294
0.0507211
0.0577031
0.0522391
0.0552907
0.0651245
0.0617056
0.0681427
0.0678821
0.0765104
0.0808355
0.0429087
0.0436708
0.0450707
0.0450187
0.0427835
0.0421231
0.0402973
0.0449201
0.0414816
0.0915123
0.21839
0.302446
0.258241
0.177273
0.194673
0.221846
0.079514
0.0814118
0.0869646
0.0826626
0.085638
0.132774
0.139184
0.139541
0.147218
0.160072
0.240367
0.119251
0.0441234
0.0474632
0.0471606
0.0600608
0.0611583
0.0491738
0.0491162
0.0506093
0.0523905
0.05714
0.0540081
0.0657927
0.0637523
0.0692208
0.0721347
0.0768433
0.0786503
0.0456585
0.0449447
0.0423631
0.0475729
0.0465222
0.0439286
0.0434544
0.0497167
0.0429093
0.041791
0.049849
0.0973027
0.294377
0.324317
0.260233
0.176716
0.19758
0.225335
0.0820357
0.0895074
0.0979474
0.087682
0.0919248
0.122685
0.10927
0.0871524
0.0904033
0.129305
0.137202
0.147586
0.158635
0.257647
0.21139
0.0650464
0.0491765
0.0496749
0.0593154
0.0612047
0.0502859
0.0506703
0.0523627
0.0541236
0.0560351
0.0663927
0.0639626
0.0696927
0.0728347
0.074904
0.0782349
0.0475254
0.0496679
0.0476117
0.0438727
0.043934
0.0454458
0.0467594
0.0447534
0.0509279
0.0485202
0.169908
0.222043
0.0434371
0.041271
0.304913
0.257193
0.255513
0.326934
0.265677
0.17739
0.199507
0.230036
0.0861815
0.0808368
0.0934813
0.0994576
0.0972087
0.107371
0.118065
0.0920539
0.0961632
0.127289
0.134558
0.147115
0.162411
0.318236
0.273395
0.319539
0.0649501
0.0524496
0.0511497
0.0581017
0.0604347
0.0523506
0.0522429
0.0538896
0.0560982
0.0628431
0.0655458
0.0683769
0.0715453
0.07466
0.0773511
0.0791724
0.05073
0.0507087
0.0453181
0.0450457
0.0462647
0.0476403
0.0493121
0.0529671
0.0500676
0.0451152
0.0510807
0.0556994
0.31422
0.260681
0.243283
0.192409
0.191702
0.331402
0.261553
0.17987
0.190323
0.209855
0.0906919
0.0845431
0.0826236
0.117015
0.102104
0.106039
0.0975871
0.101434
0.125649
0.133304
0.149907
0.164021
0.0870227
0.350374
0.329234
0.352831
0.0777294
0.0551248
0.0538544
0.0581752
0.0604453
0.0540303
0.0539129
0.0560533
0.0628484
0.0654781
0.0682847
0.0713624
0.0739964
0.0759228
0.0790993
0.0798323
0.0532129
0.054194
0.0469656
0.046971
0.0482613
0.0496738
0.0508926
0.0548004
0.0517955
0.0508241
0.0469147
0.0478997
0.311106
0.166955
0.230566
0.222496
0.192826
0.334703
0.262779
0.175032
0.195203
0.215467
0.241861
0.0956993
0.0839855
0.0893884
0.0840318
0.103494
0.114226
0.108682
0.12574
0.138973
0.152621
0.160453
0.0879159
0.386856
0.371426
0.405529
0.0809119
0.0590817
0.0559647
0.0604227
0.0579751
0.0560393
0.056197
0.062665
0.0653808
0.0709956
0.06797
0.0733245
0.0758573
0.0759436
0.0787374
0.0821516
0.056871
0.056096
0.0573878
0.04892
0.04873
0.0508966
0.0524992
0.0535602
0.0530926
0.048764
0.0504317
0.316673
0.255876
0.144123
0.150031
0.205882
0.197877
0.174268
0.271596
0.331827
0.178324
0.194489
0.211276
0.236283
0.101053
0.0855576
0.0936483
0.0868776
0.0896803
0.110237
0.114315
0.106576
0.127834
0.140724
0.150769
0.164765
0.114233
0.425742
0.426212
0.439752
0.092723
0.0628345
0.0580691
0.0606818
0.0582862
0.058018
0.0632399
0.0653627
0.0704024
0.0681896
0.0741608
0.0760721
0.0781835
0.0808138
0.0838559
0.060124
0.0598697
0.0596107
0.0555849
0.0509802
0.0510868
0.0525645
0.0534746
0.0544421
0.0507343
0.0545727
0.332287
0.280528
0.242757
0.220205
0.125446
0.133328
0.147221
0.189091
0.178081
0.162938
0.112964
0.273096
0.326601
0.331985
0.177865
0.194801
0.22557
0.211584
0.0993951
0.0881183
0.0924775
0.089379
0.112206
0.119609
0.105151
0.165273
0.130088
0.137725
0.152394
0.113133
0.473106
0.482243
0.505295
0.0599298
0.0994935
0.0645951
0.0611476
0.060765
0.066695
0.0651655
0.0716397
0.0720622
0.0693426
0.0750061
0.07838
0.081437
0.0646472
0.0625503
0.0620266
0.0576443
0.0568252
0.0527316
0.0522501
0.0541413
0.0559709
0.0525816
0.0562055
0.0689927
0.0741641
0.276864
0.245261
0.214982
0.196168
0.120339
0.135278
0.150085
0.170769
0.160963
0.108479
0.0999263
0.0926451
0.0825023
0.0790683
0.316712
0.265745
0.316411
0.271536
0.166291
0.179113
0.192034
0.220965
0.0985759
0.0905874
0.0934059
0.120369
0.112729
0.105503
0.102385
0.152049
0.151899
0.129711
0.141208
0.136821
0.561913
0.52997
0.52642
0.0666849
0.101134
0.063177
0.0643484
0.0721649
0.0683713
0.0746815
0.0773102
0.0802704
0.0648863
0.0643759
0.059975
0.0586213
0.0573937
0.054906
0.0544396
0.0561992
0.0607741
0.054678
0.0761813
0.0696917
0.0729739
0.240222
0.219898
0.193322
0.175527
0.120687
0.137632
0.147274
0.15429
0.11371
0.0996839
0.102293
0.0776867
0.0909418
0.0802071
0.0844412
0.270057
0.251219
0.237679
0.216712
0.160549
0.174382
0.199627
0.149446
0.0968163
0.0934655
0.117314
0.108098
0.113227
0.106384
0.100771
0.142453
0.14388
0.130359
0.109722
0.615697
0.595857
0.585942
0.0834942
0.105991
0.0673842
0.0611335
0.071754
0.0755896
0.078888
0.0673075
0.0623843
0.0612879
0.0601526
0.0581436
0.0566674
0.0559436
0.058619
0.0562868
0.0741112
0.0703321
0.211557
0.215162
0.197772
0.17387
0.157331
0.127472
0.135488
0.140605
0.116536
0.110487
0.102395
0.078811
0.0817585
0.0956394
0.0849412
0.0893226
0.224162
0.214856
0.211726
0.196732
0.140615
0.162656
0.171076
0.151435
0.194424
0.0963315
0.12077
0.11463
0.111044
0.10422
0.0994698
0.123612
0.130032
0.131213
0.115758
0.730871
0.686994
0.732736
0.133453
0.070837
0.0790734
0.0747127
0.0781527
0.0650864
0.063498
0.0619533
0.0605187
0.0588309
0.0584204
0.0597667
0.0587529
0.0741441
0.0679301
0.194005
0.195429
0.176158
0.155573
0.1426
0.125506
0.129216
0.116374
0.108725
0.101897
0.0777907
0.0812213
0.0959921
0.0856277
0.0902391
0.196333
0.189997
0.172801
0.126195
0.132678
0.142127
0.150054
0.175249
0.112162
0.107061
0.101981
0.117577
0.11505
0.122635
0.126136
0.855462
1.17248
0.321298
0.0750206
0.088036
0.078114
0.0665036
0.0650156
0.0628517
0.0610207
0.0603374
0.0621993
0.0711032
0.0691893
0.175154
0.173412
0.156032
0.141084
0.130885
0.119481
0.111175
0.103882
0.0975483
0.0744834
0.0782483
0.0918788
0.0823183
0.0868735
0.171672
0.173264
0.15635
0.127904
0.133963
0.140934
0.12328
0.155992
0.108651
0.104317
0.112294
0.113359
0.118378
0.198915
1.66906
1.61398
0.579435
0.0801053
0.122169
0.0672455
0.0655821
0.0627102
0.0633864
0.0690062
0.0726282
0.0706923
0.156781
0.156541
0.14143
0.129762
0.12095
0.112623
0.105219
0.0989907
0.0758741
0.079843
0.0932561
0.0837555
0.0884257
0.154182
0.154669
0.142085
0.125249
0.129737
0.118804
0.141626
0.106208
0.10896
0.109898
0.112766
4.05701
0.331388
2.3333
2.47953
1.16871
4.49714
0.0682296
0.0658029
0.067072
0.0668072
0.0772103
0.0734344
0.0713263
0.139985
0.140841
0.130337
0.120652
0.112196
0.10549
0.0990715
0.0773421
0.0806352
0.0940963
0.08502
0.088967
0.13751
0.137775
0.13022
0.119148
0.112973
0.127975
0.130351
3.27198
3.60158
0.635933
3.5995
3.58059
4.88549
3.96701
6.43346
0.0691852
0.0659337
0.0704063
0.0706081
0.0943089
0.0744883
0.0709336
0.13114
0.130744
0.120701
0.112466
0.105464
0.0995873
0.0780783
0.0817625
0.094423
0.089892
0.0856633
0.129611
0.122246
0.113346
0.120803
0.12326
0.122457
2.21288
2.86076
3.18079
1.20755
4.51384
3.48144
6.20034
6.25907
0.0709382
0.0705045
0.0754163
0.134893
0.075358
0.07157
0.11844
0.118977
0.11166
0.104913
0.0994222
0.0779733
0.0825346
0.094641
0.0904024
0.0862713
0.122343
0.115437
0.116252
0.11843
0.116892
0.116214
1.93759
1.80985
2.49669
2.7842
3.44205
5.8633
4.10786
3.02872
5.86398
6.05947
0.073159
0.0746841
0.080315
0.0744933
0.0754619
0.0775516
0.114041
0.106965
0.102066
0.0968117
0.0814784
0.0818164
0.0937359
0.0890155
0.086767
0.115173
0.112629
0.113614
0.1119
0.110957
1.52375
1.47777
2.16408
2.39524
6.31218
2.9806
5.59548
5.42213
3.68319
2.58974
5.49538
5.85216
0.0749054
0.0774254
0.0775024
0.0788068
0.0819797
0.109998
0.105375
0.101391
0.0970378
0.0836365
0.0848371
0.0936755
0.0902973
0.0875767
0.109164
0.10728
0.105298
6.14619
1.1938
1.20121
1.84531
1.98302
5.89657
2.58181
5.25553
5.15528
4.96549
3.23831
2.13129
5.09656
5.64061
0.0772139
0.0780763
0.080206
0.0816226
0.104231
0.10242
0.0998782
0.0967539
0.0841734
0.0862861
0.0938316
0.0910668
0.0885804
6.73251
5.57227
0.934075
0.961409
1.5115
1.46822
5.43262
2.22682
5.10374
4.80241
4.70493
4.49127
2.74409
1.57433
4.65447
5.42222
7.71452
6.19466
5.00244
0.725821
0.737711
1.0983
0.599002
4.94391
1.88991
4.96094
4.68343
4.35594
4.2451
3.98885
2.11203
0.670428
4.12972
5.19127
8.42286
7.31255
5.6133
4.43909
0.549004
0.491848
0.398231
4.42966
1.55538
3.49746
4.65089
4.2608
3.91299
3.76514
3.42522
1.04658
3.41832
9.77857
7.94411
6.84068
5.00009
3.87367
0.367074
0.127303
3.85933
1.36422
2.74132
3.05156
4.32773
3.83811
3.46212
3.23637
2.71295
2.17255
11.2159
8.98523
7.48791
6.29753
4.36047
3.2777
0.0832687
3.12255
1.42686
2.37754
2.6299
3.98898
3.40468
2.97483
2.57823
1.51233
11.8428
11.1952
8.06447
7.023
5.65858
3.67922
2.56271
1.71956
1.30819
1.27813
2.05779
2.21925
3.62338
2.93459
2.37902
1.48403
12.1206
11.5248
10.9287
7.07322
6.51625
4.88735
2.88957
1.35728
1.48532
1.19869
1.14331
1.76391
1.80843
3.20542
2.35871
1.39289
8.18411
12.1263
10.9383
10.3765
6.03189
5.95468
3.93774
1.65701
1.59758
1.38047
1.09209
1.01806
1.48111
1.38859
2.66751
1.41469
6.9194
8.06598
11.8605
10.0689
9.52055
5.00146
5.17879
2.56358
1.60918
1.48252
1.27299
0.984478
0.895857
1.19433
0.949019
1.76075
6.2864
6.62063
7.72454
11.3885
8.97464
8.30233
4.2538
3.46477
1.51208
1.49313
1.36502
1.15978
0.870479
0.763154
0.869445
0.468735
6.2999
6.10211
6.19834
7.22102
10.6529
7.64052
6.74888
3.36288
1.33093
1.40527
1.37476
1.24211
1.03574
0.740103
0.587319
0.403827
6.84952
6.09857
5.78662
5.70348
6.61513
9.52144
6.08593
5.89997
1.4272
1.21902
1.29607
1.25104
1.10838
0.889694
0.566476
0.2629
8.07469
6.54327
5.77261
5.38183
5.15288
5.93072
7.6251
3.77079
2.64714
1.27942
1.11041
1.18127
1.11654
0.952086
0.691079
0.250271
12.0249
7.94472
6.12314
5.36224
4.90319
4.53592
5.12256
5.119
3.54035
2.3046
1.1451
1.00097
1.05553
0.959437
0.741512
0.334358
11.7549
12.0081
7.60137
5.63317
4.88012
4.34276
3.80745
4.02957
4.95578
3.08094
1.99866
1.02009
0.885026
0.907592
0.747937
0.37115
11.0537
11.4514
11.7161
7.09852
5.08793
4.31705
3.65699
2.87743
5.13976
4.64466
2.64858
1.71434
0.897676
0.752536
0.706824
0.377034
9.81896
11.06
10.9216
11.1495
6.48325
4.4776
3.62856
2.76481
5.23683
4.71748
4.32286
2.23227
1.43929
0.764143
0.576795
0.348472
8.416
9.06105
10.8574
10.1767
10.339
5.74628
3.75169
2.72847
5.56598
4.78085
4.29219
3.98426
1.81856
1.15985
0.587329
0.259319
7.77241
7.95706
8.19072
10.4135
9.25425
9.19925
4.82637
2.80329
5.85953
5.12648
4.33425
3.8673
3.61862
1.39765
0.842419
0.262799
6.75351
7.36484
7.53223
7.3069
9.77176
8.26429
7.70016
3.52085
6.65207
6.26575
5.42417
4.67811
3.89323
3.43154
3.19915
0.951717
0.383039
6.13625
6.22195
6.89431
7.10645
6.42065
8.95055
7.24496
6.06926
5.08227
6.44242
5.93814
4.9719
4.22025
3.44416
2.95742
2.6553
0.456022
6.24898
5.56142
5.64277
6.36302
6.64539
5.52978
7.9284
5.78776
3.40871
4.53457
4.68573
6.22488
5.56931
4.49931
3.74152
2.95734
2.3727
1.72597
5.84675
4.99014
5.02475
5.73112
6.10764
4.80397
6.44934
2.94432
2.06757
4.31022
4.02597
4.25844
6.0032
5.16689
3.99688
3.21251
2.3604
1.40378
2.44262
3.56263
5.39517
4.42581
4.37829
4.96406
5.31219
3.56467
2.53719
1.63359
3.82438
3.54557
3.81486
5.77784
4.71729
3.43164
2.5523
1.35588
1.98652
3.13513
4.91558
3.86073
3.69463
4.01689
3.51931
2.18491
1.28411
3.37735
3.09083
3.34966
5.5463
4.18024
2.71256
1.43966
1.61975
2.74873
4.40949
3.26606
2.90289
2.63979
1.85608
1.00826
2.9576
2.64614
2.83209
5.30091
3.44639
1.48566
1.31472
2.39037
3.84463
2.55433
1.67975
1.55408
0.786075
2.54649
2.1794
2.16821
2.14584
1.05074
2.04456
3.11435
1.35914
1.36807
0.595973
2.11082
1.60581
1.04409
0.80581
1.68123
1.73088
0.399697
1.56794
0.662537
0.539167
1.23205
0.0958803
0.64665
0.148609
0.474793
0.0862871
0.084341
0.0856278
0.0856373
0.0870849
0.0868571
0.0875061
0.0875384
0.0882495
0.0827381
0.0838419
0.0842683
0.085468
0.0857856
0.0869331
0.0875458
0.0918808
0.0933114
0.0946484
0.0968897
0.0983337
0.0884446
0.0892436
0.0882736
0.0884322
0.088742
0.0883793
0.0896063
0.0893369
0.0903769
0.101018
0.102178
0.0814158
0.08252
0.0831421
0.0842319
0.0848571
0.0858042
0.0867987
0.0878894
0.0888482
0.0898277
0.0909305
0.0922992
0.0940946
0.0955571
0.0986371
0.100127
0.105617
0.106372
0.0902313
0.0911043
0.0921593
0.093122
0.0944971
0.095945
0.0983197
0.089636
0.0900937
0.0896197
0.0896329
0.0905179
0.0898748
0.0918757
0.0913559
0.0927016
0.098148
0.0999643
0.110616
0.112297
0.104857
0.104606
0.109699
0.0804109
0.0814372
0.0823017
0.0833109
0.0842605
0.0852594
0.086462
0.0873953
0.0891221
0.090211
0.0916754
0.0929677
0.0969286
0.0983924
0.101478
0.102635
0.107153
0.108421
0.113573
0.115724
0.122113
0.122234
0.129212
0.0910776
0.091802
0.0927627
0.0937809
0.0952508
0.0908134
0.0910862
0.0911649
0.090853
0.0924218
0.0916467
0.09512
0.094064
0.0933456
0.0956634
0.0993145
0.0995478
0.104581
0.106205
0.125821
0.113799
0.121491
0.11057
0.113478
0.0800097
0.0809394
0.0820821
0.0830792
0.0843409
0.0852574
0.0867418
0.0876559
0.0892487
0.0902304
0.0924446
0.0945721
0.102765
0.0998235
0.106184
0.10864
0.113135
0.114618
0.119509
0.129267
0.134921
0.135766
0.149495
0.152119
0.145823
0.154352
0.154932
0.196091
0.0920557
0.0928142
0.0936348
0.0945882
0.097469
0.096225
0.0920966
0.0921331
0.0927791
0.0923017
0.0952382
0.0942257
0.0934811
0.0996736
0.0983496
0.0959514
0.0983957
0.100294
0.248681
0.214773
0.307516
0.104696
0.105005
0.110545
0.112789
0.12742
0.12952
0.165422
0.144665
0.121933
0.127995
0.0807288
0.0813191
0.0829392
0.0835478
0.0853433
0.0858913
0.0878887
0.0886736
0.091901
0.0911052
0.0953236
0.0967497
0.101586
0.10392
0.113394
0.111605
0.120907
0.129709
0.136734
0.137516
0.149355
0.714116
0.702137
0.493636
0.16233
0.171146
0.18642
0.192722
0.202558
0.217848
0.218434
0.491162
0.292856
6.43712
7.00343
6.85457
6.54061
7.16347
7.18541
6.95647
6.5832
0.093196
0.0935576
0.094559
0.095494
0.0971855
0.0961145
0.093479
0.0932972
0.0952796
0.0944605
0.0939421
0.1019
0.100516
0.0992004
0.0980618
0.0967063
0.0996339
0.105652
0.101573
0.104956
6.03608
5.06858
1.8622
1.31927
0.772597
0.1749
0.249598
0.305579
0.564731
0.112805
0.113152
0.114154
0.113701
0.125823
0.127913
0.139787
0.136148
0.164147
6.2295
6.92032
4.54368
7.14404
7.20565
7.19021
5.44539
6.07911
6.16783
7.17426
0.0869426
0.0845267
0.0886574
0.0873057
0.0910513
0.0900501
0.093668
0.0935055
0.0966494
0.0964349
0.10046
0.10044
0.108213
0.11116
0.116764
0.115737
0.121503
0.146927
0.124665
0.159788
0.21119
0.203569
0.247633
0.248802
0.243992
1.28001
1.78643
3.42034
2.48527
1.29578
0.99652
0.356747
0.394836
0.498971
0.505124
1.02142
0.596094
0.579974
3.88702
6.05903
4.96697
5.26979
6.15858
6.69007
6.92274
6.91586
4.97677
4.9246
7.12857
7.08258
5.57545
5.79493
6.38265
7.01963
6.59983
6.96473
0.0944608
0.0946745
0.0955555
0.0968523
0.0972286
0.0962144
0.0957139
0.0950039
0.0946379
0.103986
0.102515
0.101115
0.0999383
0.0988843
0.0978917
0.0975099
0.100509
0.100885
0.10479
0.105291
0.109732
0.104598
2.68348
4.52735
3.53034
5.91403
4.61607
1.67635
2.70614
1.43477
0.752998
0.113246
0.609602
0.200056
0.348344
0.256025
0.123534
0.120251
0.128955
0.124321
0.132237
0.130985
0.149164
0.1433
0.200313
6.24663
7.0878
5.9468
4.28947
4.70198
3.65266
7.32344
7.42734
7.24714
5.99614
4.52816
5.61511
0.188871
0.103191
2.1099
0.6467
0.135751
0.105372
0.12426
0.105187
0.119327
0.104631
0.117826
0.11242
0.109892
0.121479
0.120496
0.143092
0.176046
0.165075
0.201418
0.283312
0.252517
0.336657
0.661668
0.37749
0.407497
0.903087
1.02961
0.552042
0.485748
0.655829
0.633617
0.798693
0.79953
1.92851
2.54693
3.683
2.97826
2.08561
1.5157
1.16527
1.16959
1.75759
1.31102
1.4295
4.93874
4.32209
5.15491
6.16968
5.868
6.84977
6.6459
7.10517
7.01157
7.05406
5.2204
5.77718
6.98952
7.00366
6.84519
6.81369
6.51194
0.0976858
0.0956964
0.095757
0.0966026
0.0971998
0.0964497
0.0961672
0.0983387
0.106113
0.104606
0.103011
0.101721
0.100582
0.0994377
0.0988004
0.0978642
0.108095
0.10574
0.107976
0.110326
0.108803
0.110229
0.101442
0.101332
0.101779
0.103433
0.114131
0.108387
0.109769
0.105494
4.62949
4.09904
3.03586
0.983888
2.53532
1.74136
0.119418
0.133584
0.131916
1.09835
0.262732
0.561131
0.364898
0.144679
0.139974
0.152576
0.148568
0.175945
0.165115
0.276908
4.41629
6.61393
7.22281
6.23338
5.30838
7.45561
3.35744
3.90583
2.72641
7.66226
7.44977
6.66665
5.50212
4.00033
4.74
4.74059
1.1931
0.340559
4.56652
3.5841
0.686511
0.334986
0.521596
0.254451
0.401526
0.216255
0.342344
0.182606
0.247567
0.44604
0.780108
0.554882
0.962776
0.620865
0.758238
1.34618
1.67188
1.82992
1.18519
1.19727
1.86077
2.09367
1.24448
1.37519
1.67285
1.5839
1.95963
1.67432
3.94938
2.76633
3.31135
3.14331
2.68375
2.53665
2.9088
2.19009
2.70121
5.38885
4.52464
6.74413
6.0597
6.36866
7.07492
6.97278
6.92177
7.00135
6.52609
6.61389
0.10997
0.108458
0.097066
0.0982449
0.0975379
0.0969996
0.0970137
0.0985763
0.0996993
0.104782
0.102922
0.102217
0.10075
0.100236
0.0991504
0.0988471
0.0980958
0.106734
0.104837
0.105984
0.107102
0.105414
0.106762
0.101113
0.101726
0.102995
0.105694
0.120589
0.11361
0.114504
0.10881
1.79924
2.65266
3.52844
0.129605
0.142685
0.141327
0.163797
0.159088
0.784302
1.83951
0.360424
0.709577
0.198759
0.182822
0.274063
0.236117
0.36956
3.59645
5.12939
4.7634
6.87898
6.98555
7.36333
7.79375
7.72055
2.65546
3.60359
7.40934
6.4722
5.72727
4.05225
4.76348
4.77071
2.08619
4.79458
5.11644
5.63864
3.79037
2.39494
5.7865
6.27721
3.38024
1.73722
2.62082
1.23115
2.01855
1.02299
1.35984
1.58011
1.20676
2.18772
1.79509
1.73101
1.70376
1.82572
2.77646
2.87091
2.99906
3.31595
2.53536
2.3738
3.40248
3.59092
2.57452
2.82567
3.30456
3.11549
3.49679
4.70752
4.18927
4.54823
3.71775
4.26354
4.23167
3.99009
4.4107
6.37141
5.70654
6.97066
6.81819
6.91202
6.92631
6.35263
6.45686
0.111828
0.109318
0.107507
0.106011
0.0985783
0.0984298
0.09874
0.0995359
0.100675
0.103867
0.102439
0.101764
0.100651
0.100239
0.0994196
0.099465
0.103702
0.104573
0.103088
0.104272
0.103446
0.104478
0.102073
0.102165
0.104005
0.109894
0.105709
0.102606
0.130515
0.121551
0.122597
0.115446
0.138636
3.15816
2.29794
0.154956
0.151601
0.184937
0.179531
0.263758
0.312762
0.249566
0.791085
2.07728
0.956572
0.498887
0.416778
0.863278
5.07885
4.23328
7.38382
6.75935
7.96408
7.85014
7.56655
7.28962
6.88419
6.53853
0.210337
0.705291
4.68027
5.55247
1.28231
3.89429
5.77816
5.47017
6.30826
6.0583
5.52902
6.20879
5.92857
5.31233
5.3735
3.55647
4.28988
3.29622
2.92002
2.89774
4.23713
3.3402
4.18584
3.51516
3.69367
4.28951
4.65821
4.60099
4.71076
4.25128
4.11739
3.76079
4.9197
5.09245
4.25944
4.44539
5.11525
5.01051
5.81483
6.08007
5.63479
5.50609
5.80985
5.48539
5.69678
6.8213
6.70144
6.68397
6.72494
6.07317
6.17652
0.0882871
0.109244
0.112428
0.111046
0.109207
0.106993
0.105569
0.104043
0.0996432
0.0998265
0.100165
0.100279
0.102636
0.102369
0.101657
0.10091
0.10042
0.10006
0.101263
0.102194
0.101461
0.102485
0.102115
0.103026
0.102248
0.106255
0.107076
0.116228
0.105185
0.106725
0.142566
0.126315
0.130062
0.117127
0.159502
0.186451
0.16848
4.47262
2.7946
0.249431
0.210298
0.490126
0.408161
1.21248
1.04647
0.884101
2.32896
3.05962
1.65886
7.34233
6.22768
8.09642
8.21261
7.95847
7.5642
7.1057
6.74747
0.147833
0.452945
4.10852
6.35631
0.844037
2.38459
6.33678
6.15562
5.94284
6.54572
6.07204
5.58294
6.94258
6.23695
6.87149
6.4578
6.04471
6.0367
5.64041
4.70203
4.75363
5.93686
5.41717
5.16838
5.39473
5.61123
5.49961
5.75653
5.68189
5.63627
5.58233
5.88736
5.13193
5.41423
5.923
5.91084
5.63854
5.73414
6.03619
6.07624
6.29382
6.2285
6.63655
6.40272
6.38135
6.4621
6.51031
5.76755
5.9205
0.0812984
0.0851381
0.0894895
0.108442
0.111028
0.110167
0.108877
0.108317
0.106996
0.105156
0.102738
0.104171
0.107606
0.108723
0.101439
0.100386
0.0997187
0.0998974
0.100681
0.0999316
0.0998272
0.100272
0.100895
0.100628
0.101575
0.101465
0.102139
0.103061
0.105536
0.108823
0.114505
0.117234
0.110797
0.139082
0.163168
0.125714
0.142492
0.177437
0.231448
0.20068
0.251197
0.389976
0.285204
6.40955
5.352
1.118
0.817586
2.52725
1.97226
4.38593
5.80121
3.95135
8.41251
8.36413
8.50069
8.02541
7.70607
7.1954
0.132826
0.320011
3.27297
6.21653
0.558962
1.5858
6.09933
6.91307
5.33415
5.50434
6.67884
5.91886
6.84428
6.61163
5.25082
5.7654
6.50693
6.38551
6.50626
6.22888
6.43499
5.79568
5.9935
6.12436
6.1212
5.87706
5.92077
5.76583
5.79608
5.75964
5.65373
5.69998
5.57775
5.42385
5.41709
5.94658
5.93574
5.96727
5.85129
6.00708
5.95812
5.98499
5.86739
5.99548
6.233
6.29585
6.00688
5.58539
5.75087
0.0798499
0.0815246
0.083621
0.0882777
0.0916391
0.107598
0.107288
0.106747
0.105892
0.105941
0.101945
0.103819
0.103084
0.104861
0.105327
0.105129
0.104386
0.105593
0.103394
0.103374
0.101401
0.101474
0.103491
0.100556
0.100018
0.100393
0.100161
0.101775
0.10029
0.100535
0.100847
0.101112
0.101415
0.101963
0.102342
0.105704
0.111412
0.107703
0.115505
0.124449
0.122165
0.13044
0.158446
0.182848
0.142621
0.16177
0.211604
0.277662
0.678846
0.613243
0.483477
0.913587
1.83629
1.79459
8.61209
7.78312
4.256
4.42552
6.74959
7.91752
6.74774
9.18954
8.70925
8.47298
8.03784
0.125484
0.244998
2.48003
5.11472
0.386113
1.08093
5.20514
7.04075
5.64776
5.15749
6.79144
6.34768
5.66369
5.30651
4.96193
4.94019
6.01043
6.12598
5.20824
5.65334
5.40154
5.83869
5.75948
5.79495
5.78915
5.42183
5.45103
5.01476
5.00198
4.89206
5.1701
4.7734
4.6298
4.06476
3.69959
4.36664
4.45205
5.39111
5.81377
5.81693
5.30349
5.40245
5.45372
5.40803
5.04281
5.47743
0.104995
0.0799019
0.0807001
0.081904
0.0839144
0.0863094
0.0906203
0.0941712
0.0809468
0.0809731
0.0825056
0.0822592
0.0844165
0.08374
0.0994837
0.0998617
0.0976155
0.0980871
0.0956139
0.0962184
0.0934578
0.0942584
0.0866422
0.0856732
0.0889929
0.0876985
0.0912491
0.0921054
0.0898989
0.104495
0.103983
0.103446
0.103806
0.102818
0.102497
0.103224
0.102315
0.102511
0.101934
0.103083
0.100439
0.100736
0.098546
0.0988951
0.102414
0.100983
0.102217
0.100842
0.101599
0.101809
0.101608
0.101805
0.102009
0.102694
0.103011
0.103094
0.102794
0.103465
0.109282
0.105128
0.118759
0.112468
0.123739
0.137631
0.132605
0.148892
0.18647
0.235151
0.167952
0.200953
0.291751
0.635638
3.16206
2.39615
3.24047
1.46915
3.15532
5.22737
6.03232
9.5432
9.42194
8.36468
9.49204
8.55017
9.65594
8.84417
0.118748
0.195685
4.6084
1.71747
2.76448
0.285393
0.752132
6.18859
6.87954
5.7949
5.20483
6.58352
6.13329
6.6273
4.77329
4.68337
4.68904
5.2786
5.1884
4.42673
4.6645
4.68
4.42979
4.85229
4.9953
4.53543
4.47183
4.07635
4.01883
3.53977
3.60956
3.83247
2.86453
2.87762
2.57348
2.58382
3.31442
4.85854
4.73316
3.61414
4.18003
4.02301
0.105144
0.0928881
0.0964653
0.081787
0.0827017
0.0843165
0.0865984
0.0892483
0.0826015
0.0829235
0.0837866
0.0838489
0.0852589
0.0851753
0.0966905
0.0972924
0.0948325
0.0956537
0.0928283
0.093845
0.0907281
0.0920259
0.0870431
0.086692
0.08879
0.0901209
0.0883474
0.102436
0.101959
0.101719
0.102487
0.102299
0.100005
0.100502
0.100096
0.10115
0.0982451
0.0987096
0.0964144
0.0969365
0.102126
0.102778
0.102457
0.104146
0.103578
0.103976
0.104323
0.103831
0.104636
0.105737
0.104367
0.104614
0.104146
0.112437
0.107893
0.108357
0.126975
0.117312
0.133948
0.156681
0.151213
0.177469
0.208747
0.422854
0.204705
0.275158
0.616636
1.99389
6.18872
6.92855
6.09756
7.35695
3.97751
6.84224
8.50881
9.46628
10.4527
10.1616
10.258
0.116294
0.146113
0.201104
2.92347
4.90778
1.11618
2.17682
0.4446
5.46921
6.408
5.35436
4.77196
5.88371
5.50217
6.33782
6.47736
6.05871
5.81063
4.21265
4.36548
4.39343
4.2883
3.94381
4.01381
3.92847
3.81743
3.96298
3.98697
3.62793
3.60147
3.11158
3.19176
2.53069
2.64745
2.09504
2.14647
1.90797
1.823
3.29251
1.83755
2.80826
4.94077
0.0960692
0.101962
0.0893666
0.0931181
0.0838988
0.0852516
0.0871837
0.0845418
0.0849116
0.0854574
0.0855407
0.0866585
0.0866523
0.094754
0.0953832
0.0931134
0.0938996
0.0913908
0.0922769
0.0897607
0.0908069
0.0882037
0.0892993
0.0879206
0.10093
0.100875
0.100874
0.100672
0.0982255
0.099055
0.098776
0.100148
0.0965681
0.0972838
0.0949501
0.0956691
0.102736
0.102124
0.104913
0.10395
0.109269
0.107568
0.11035
0.10946
0.106665
0.107696
0.110614
0.108393
0.106325
0.112139
0.107601
0.107718
0.121183
0.120584
0.139392
0.137163
0.174934
0.171428
0.232844
0.19773
0.31726
0.728666
0.261526
0.399663
1.73191
4.22619
6.44547
9.53987
9.62242
9.526
9.79205
10.7349
10.7002
10.9961
0.7098
0.106071
0.110242
0.138212
0.181582
0.331954
3.9934
1.61552
2.42627
5.61017
4.40922
4.37389
4.83353
5.6251
6.04333
4.82457
5.30258
6.14281
6.08731
5.61307
5.18765
3.78876
3.97595
3.62141
3.63961
3.52901
3.54845
3.41326
2.95368
3.22991
3.19764
2.4487
2.63798
1.98454
2.15577
1.6366
1.75709
1.49819
1.47357
0.0939347
0.0974062
0.0864659
0.0881819
0.0909573
0.0862994
0.0877676
0.0870143
0.0874332
0.0878722
0.0879421
0.093334
0.0942507
0.0916772
0.0929246
0.0903374
0.0914923
0.0890376
0.0902305
0.0890409
0.101334
0.0999625
0.100115
0.100505
0.0973036
0.0981383
0.099836
0.0982541
0.0957119
0.0966617
0.0943775
0.0951853
0.105274
0.104021
0.104051
0.107984
0.106117
0.114915
0.114245
0.113483
0.115824
0.122422
0.119651
0.120117
0.117308
0.116222
0.11235
0.110092
0.120127
0.116739
0.123323
0.146909
0.136969
0.216581
0.217103
0.170509
0.203002
0.311339
0.31419
1.00392
2.03166
0.895648
3.80653
5.77343
7.66347
10.3463
11.7314
11.5407
11.4733
1.49602
2.00908
0.10002
0.539267
1.0271
0.107993
0.112412
0.120066
0.15388
0.19548
0.316185
3.90088
3.15437
5.57882
5.13462
3.91074
4.2755
5.87281
5.97444
4.28929
4.80371
5.75761
5.5894
4.93936
3.37363
3.55619
2.9552
3.10185
3.11384
2.96438
2.5239
2.65798
2.09078
2.27473
1.75613
1.89735
1.43175
1.60794
0.096581
0.0890864
0.0922251
0.0943505
0.0946746
0.088454
0.0900457
0.0886781
0.0895382
0.0893461
0.089605
0.0927244
0.0938909
0.0916055
0.0925775
0.0904046
0.0914576
0.0903344
0.0943907
0.100274
0.100001
0.101445
0.0992532
0.0981084
0.097025
0.101701
0.0971243
0.0962067
0.0961252
0.105107
0.103395
0.10693
0.109555
0.109696
0.114798
0.113556
0.123162
0.125325
0.128353
0.127275
0.14053
0.137716
0.135525
0.125087