/*--------------------------------*- C++ -*----------------------------------*\
  =========                 |
  \\      /  F ield         | OpenFOAM: The Open Source CFD Toolbox
   \\    /   O peration     | Website:  https://openfoam.org
    \\  /    A nd           | Version:  8
     \\/     M anipulation  |
\*---------------------------------------------------------------------------*/
FoamFile
{
    version     2.0;
    format      ascii;
    class       volScalarField;
    location    "2000";
    object      p;
}
// * * * * * * * * * * * * * * * * * * * * * * * * * * * * * * * * * * * * * //

dimensions      [0 2 -2 0 0 0 0];

internalField   nonuniform List<scalar> 
4109
(
-0.00552569
-0.0177855
-0.00879492
-0.0287617
-0.0299025
-0.0185354
-0.0287141
-0.0146654
-0.0392321
-0.0397024
-0.0390233
-0.042967
-0.00912949
-0.0228963
-0.0317832
-0.0463742
-0.0507374
-0.0467468
-0.045116
-0.0419972
-0.00271892
-0.032453
-0.032767
-0.0537996
-0.0546436
-0.0622782
-0.00304269
-0.00826561
-0.00559619
-0.0520831
-0.0456147
-0.0470694
-0.0299944
-0.086903
-0.0618487
-0.0572752
-0.0622795
-0.0762967
-0.0165441
-0.00504677
-0.000188835
-0.0132561
0.000367544
-0.0561597
-0.0518656
0.0902536
-0.0558658
-0.0471419
-0.055094
-0.0764569
-0.0683447
-0.0659184
-0.0717166
-0.0884906
-0.0239833
-0.0109743
-0.00520115
0.0150032
-0.00959623
-0.0210382
-0.0678266
0.0650761
-0.0617059
-0.0562621
-0.0523746
-0.0337379
-0.0585412
-0.0519958
-0.057784
-0.0537276
-0.105418
-0.080484
-0.125725
-0.12561
-0.12719
-0.0299801
-0.0327791
-0.0231684
-0.0123398
-0.0206198
-0.0118108
-0.0150886
-0.0160256
-0.0261993
0.0156258
-0.206775
0.123729
-0.236297
-0.00807813
-0.0812762
-0.0713064
-0.0615835
-0.0557828
-0.053412
-0.0541341
0.0316157
-0.0530971
-0.0620713
-0.125479
-0.108883
-0.0979346
-0.139533
-0.137419
-0.14565
-0.151152
-0.0344614
-0.037453
-0.0399376
-0.0230779
-0.0047856
0.0639266
-0.0153902
-0.0156421
-0.023686
-0.030249
-0.578993
0.112111
0.0118594
-0.00553295
-0.309749
-0.120374
0.261524
-0.0883527
-0.0778304
-0.0696234
-0.0563265
-0.055119
-0.0465146
-0.0744632
-0.0633452
-0.0570137
-0.11995
-0.111699
-0.14866
-0.133539
-0.178189
-0.166577
-0.0416324
-0.0476018
-0.0504574
-0.0340487
0.00851403
0.0595564
-0.012981
-0.0243362
-0.0271919
-0.034572
0.0879512
0.0819955
-0.215383
-0.100532
-0.137554
0.0954176
-0.0863014
-0.084226
-0.075773
-0.060187
-0.0486894
-0.0438089
-0.0396939
-0.00611453
-0.0287026
-0.109037
-0.100059
-0.148134
-0.123458
-0.166353
-0.181519
-0.214806
-0.0520231
-0.0581451
-0.0627905
-0.0509475
0.00794741
0.0295366
-0.0199108
-0.0237798
-0.0259457
-0.0428246
0.0191593
-0.158092
0.0161539
-0.0697584
-0.0838727
-0.0218764
-0.080407
-0.0853477
-0.0724156
-0.045956
-0.0461259
-0.0282027
-0.0139242
-0.0107797
-0.0931198
-0.100527
-0.138644
-0.112031
-0.157499
-0.185368
-0.216395
-0.256864
-0.0663506
-0.0725291
-0.075708
-0.06707
-0.0157638
0.00394726
-0.0101244
-0.0119771
-0.0242149
-0.0568347
-0.0928766
-0.103698
-0.0847568
-0.0155013
-0.094407
-0.0463064
-0.0768933
-0.0782845
-0.0945662
-0.0488083
0.0960037
0.0667237
-0.0808418
-0.0860206
-0.127753
-0.0967932
-0.147383
-0.178882
-0.215669
-0.256425
-0.302694
-0.0825016
-0.0866982
-0.0873159
-0.0801292
-0.00856799
0.0293783
0.00988416
0.0131878
-0.0990113
-0.0381965
-0.0736387
-0.0639123
-0.0631253
0.0544957
-0.138895
-0.208993
-0.052631
-0.0851221
-0.0604814
-0.0901661
0.060367
0.0674189
-0.0633879
-0.0656013
-0.111676
-0.0767655
-0.131075
-0.169901
-0.206587
-0.249156
-0.298443
-0.349639
-0.104269
-0.0951164
-0.0918668
-0.116359
0.0209354
0.101264
-0.017344
-0.11326
-0.0906908
-0.061682
-0.175263
-0.129535
-0.23129
0.0633934
-0.197166
0.0100486
1.07773
-0.0566355
-0.0103634
-0.337662
-0.0965715
-0.0537013
-0.0291796
-0.0863331
-0.0444067
-0.108922
-0.153063
-0.196144
-0.237431
-0.285901
-0.333451
-0.370422
-0.383108
-0.113601
-0.116874
-0.108248
-0.134145
-0.130553
0.0197574
0.100825
-0.0554373
-0.107508
-0.0842428
-0.0651181
-0.22239
-0.0284594
-0.0484727
0.402586
0.050035
1.08361
1.12335
1.13587
1.02828
1.02852
0.97011
-0.661739
-0.249239
-0.148224
-0.112597
0.0145986
-0.0465167
-0.0388365
-0.0806461
-0.132072
-0.178121
-0.371181
-0.226167
-0.272011
-0.322447
-0.394598
-0.400857
-0.411647
-0.386617
-0.136957
-0.136485
-0.153442
-0.148477
-0.125117
-0.0256628
-0.0109666
-0.090995
-0.103957
0.335314
0.118044
1.0125
-0.105108
1.19947
1.1632
1.16928
1.07739
1.1963
1.21827
-0.314902
-0.362467
-0.32953
0.946347
0.921677
0.992723
0.909324
1.01622
0.109328
0.164559
0.160891
0.0233631
-0.0274698
-0.399239
-0.10477
-0.109036
-0.155193
-0.204854
-0.360133
-0.260974
-0.310931
-0.437804
-0.419133
-0.424814
-0.437716
-0.427417
-0.438054
-0.166547
-0.159476
-0.174347
-0.165302
-0.142073
-0.122753
-0.0967295
-0.153519
-0.104159
0.778439
0.61607
1.24442
1.23169
1.15582
1.27665
1.30526
-0.247497
-0.192614
-0.195089
-0.484588
-0.3196
0.826845
0.811851
0.842254
0.94176
1.08248
-0.0894083
0.445942
0.435813
0.0322713
-0.0789171
-0.394399
-0.420992
-0.114614
-0.130982
-0.17379
-0.234378
-0.354388
-0.302835
-0.473111
-0.451155
-0.484223
-0.474717
-0.518205
-0.597503
-0.197971
-0.185775
-0.120216
-0.203183
-0.178696
-0.15833
-0.138522
-0.223513
-0.108753
-0.0778351
-0.104864
-0.263167
1.20459
1.32554
1.32263
1.23107
1.3707
1.40675
-0.797882
-0.0186616
0.187753
-0.0815185
-0.0975492
0.629364
0.410058
-0.313759
-0.168851
0.716091
0.84248
0.987377
1.16473
-0.15555
0.0239461
0.132115
-0.0273966
-0.101699
-0.401073
-0.445914
-0.128885
-0.144111
-0.19175
-0.269489
-0.354516
-0.528414
-0.491485
-0.552976
-0.553581
-0.655195
-0.867482
-0.232023
-0.244853
-0.21609
-0.123121
-0.134705
-0.174529
-0.194044
-0.150596
-0.245358
-0.215863
-0.521982
-0.25063
-0.239668
-0.0476075
1.24971
1.23319
1.16504
1.4286
1.42527
1.32433
1.48542
1.53887
-0.632265
-1.19527
0.0451371
0.20009
0.0719275
0.402525
0.584035
-0.0993034
0.0131153
0.71147
0.870317
1.07775
1.27786
-0.257195
-0.225661
-0.229386
-0.057627
-0.0470139
-0.101423
-0.414405
-0.477167
-0.13659
-0.160722
-0.225728
-0.323342
-0.539947
-0.597692
-0.643837
-0.667025
-0.869539
-1.17158
-1.45095
-0.269971
-0.282551
-0.14587
-0.140796
-0.165306
-0.185394
-0.209589
-0.281931
-0.242634
-0.202825
-0.0788255
0.36629
1.32517
1.30185
1.23934
1.06961
1.16142
1.54943
1.55032
1.43794
1.59931
1.63051
-0.394068
-0.997997
-1.71258
0.550428
0.253362
0.353015
0.129579
0.184644
0.730937
0.967137
1.2242
1.41105
0.302493
-0.185733
-0.252241
-0.26136
-0.101224
-0.0213674
-0.0521061
-0.39412
-0.477962
-0.198571
-0.135264
-0.285768
-0.568052
-0.663919
-0.756186
-0.82989
-1.09984
-1.38822
-1.76775
-2.05771
-0.315457
-0.320911
-0.120912
-0.147973
-0.166131
-0.187302
-0.223689
-0.318089
-0.283447
-0.24497
-0.0487634
0.0238328
1.43138
0.967508
1.34117
1.27434
1.14689
1.67598
1.68029
1.56764
1.72199
1.73571
1.70103
-0.110598
-2.17651
-0.695821
-1.36905
0.336938
0.547742
0.369432
0.824671
1.15457
1.3846
1.56177
0.0280817
-0.113826
-0.173972
-0.141642
-0.0751072
0.093816
0.0347212
-0.481414
-0.371576
-0.264353
-0.182536
-0.601669
-0.736794
-1.00267
-0.87292
-1.3075
-1.96685
-1.62626
-2.26186
-2.49949
-0.359708
-0.356651
-0.355849
-0.134788
-0.155888
-0.195401
-0.246956
-0.321134
-0.282394
-0.0872952
-0.073417
1.55462
1.43126
0.822679
0.955389
1.33487
1.21891
1.04383
1.79429
1.78934
1.70841
1.84535
1.83969
1.81612
0.159018
-2.72852
-0.336367
-1.78261
-0.950607
0.495042
0.658266
0.394116
1.02755
1.33414
1.55744
1.72954
0.0198922
-0.0203944
-0.0983313
-0.102036
0.0295603
0.178563
-0.00201203
-0.511213
-0.358684
-0.268665
-0.680301
-0.836033
-1.16722
-1.00313
-1.5554
-1.96325
-2.32558
-2.73457
-3.09646
-0.401058
-0.393667
-0.396181
-0.364889
-0.142148
-0.163259
-0.21845
-0.281105
-0.323242
-0.0768844
-0.0422296
1.67719
1.58238
1.51658
1.41407
0.634273
0.814896
0.925973
1.29194
1.15664
1.00516
0.421792
1.88402
1.87175
1.79037
1.85932
1.95433
1.91826
1.95413
0.0570284
-2.27474
-0.508266
-1.3144
0.65679
0.86252
0.429124
1.91237
1.22006
1.53079
1.75935
0.0454233
-0.0419668
-0.0820554
-0.0521793
-0.16365
0.0328021
0.0557862
-0.533529
-0.345538
-0.896022
-0.758155
-1.31818
-1.66335
-1.15499
-2.2112
-2.84214
-3.3625
-0.416396
-0.44996
-0.444834
-0.415606
-0.37325
-0.156918
-0.182172
-0.254408
-0.324452
-0.0772007
-0.029779
-0.39674
-0.339742
1.69464
1.61852
1.50231
1.37908
0.642992
0.810953
0.944942
1.23249
1.0884
0.455973
0.207739
0.00812051
-0.160142
-0.274571
1.91012
1.94358
1.87818
1.79987
2.09514
2.00612
2.03617
1.9995
-0.0357264
-1.73913
-0.792554
1.04789
0.783655
0.641928
0.382267
2.20263
1.98313
1.44613
1.77985
0.0309486
-0.11077
0.0174475
0.498073
-0.351229
-0.0492073
-0.724715
-0.493492
-1.5604
-1.15071
-1.92887
-2.78835
-3.50358
-0.464398
-0.490698
-0.474221
-0.433854
-0.379004
-0.17719
-0.220604
-0.303633
-0.0575363
-0.0714175
-0.334176
-0.440579
-0.371253
1.71352
1.60557
1.47737
1.32182
0.661274
0.83397
1.00225
1.15633
0.496677
0.254382
0.333689
-0.331049
0.0549629
-0.244612
-0.11414
1.89867
1.96434
1.81755
2.03562
2.24993
2.12652
2.08061
2.38119
-0.247298
-1.13995
1.28086
1.15694
1.02088
0.999478
0.319802
2.07101
2.34312
1.78058
0.219014
0.148022
0.901301
0.566035
-0.251201
-0.391185
-0.877023
-0.564983
-1.67073
-2.56246
-3.49793
-0.519274
-0.532742
-0.505572
-0.451619
-0.368973
-0.228972
-0.280448
-0.0937291
-0.106916
-0.411195
-0.520341
1.83081
1.71823
1.58592
1.42799
1.23783
0.691312
0.884109
1.05965
0.534745
0.378465
0.188996
-0.416304
-0.36748
0.0382736
-0.27827
-0.137623
1.92364
2.00358
1.94428
2.12132
2.55364
2.39876
2.23056
2.53041
1.94628
-0.483655
1.71644
1.59034
1.43844
0.940114
0.234312
2.36175
2.20594
2.52562
0.198
0.635966
2.16065
0.458173
0.476496
-1.23386
-0.768597
-2.15796
-3.33662
-0.58719
-0.581807
-0.544811
-0.4624
-0.298134
-0.362564
-0.155635
-0.149195
-0.522089
-0.62776
1.83592
1.71172
1.54979
1.33435
1.13061
0.738691
0.935002
0.573577
0.381776
0.187542
-0.50374
-0.441398
-0.000115674
-0.334425
-0.183302
2.08318
2.02813
2.28244
2.93827
2.71579
2.73352
2.55293
2.00234
1.88053
1.55899
0.98341
2.28342
2.72038
3.03261
0.120915
0.84929
-0.129702
-0.198246
-1.67421
-0.963143
-2.98715
-0.655806
-0.645891
-0.590482
-0.295606
-0.454176
-0.346473
-0.648295
-0.720503
1.69368
1.84695
1.4579
1.20355
0.998061
0.783076
0.602894
0.3948
0.17086
-0.62648
-0.554914
-0.0558747
-0.432425
-0.262449
2.13716
2.23334
2.52585
3.24818
2.98168
2.83284
3.49452
2.04407
2.12892
1.73238
2.66851
3.11666
3.54149
-0.208316
0.0811271
0.121246
-0.195382
-2.3956
-1.35345
-0.746238
-0.717283
-0.487109
-0.60337
-0.621149
-0.76067
-0.84293
1.62979
1.82845
1.32119
1.07332
0.836871
0.638089
0.401522
0.140853
-0.75387
-0.685193
-0.12048
-0.550744
-0.357462
2.25258
2.42249
2.80864
3.51037
3.17258
3.92299
2.02894
2.44876
3.12976
3.71694
4.23604
-32.165
-0.23986
0.284378
0.336249
-0.404379
-31.4249
-0.852625
-0.764868
-0.888962
-1.00601
-0.709772
-0.912223
-0.993583
1.75087
1.51174
1.19619
0.909857
0.688991
0.411988
0.105675
-0.924312
-0.853695
-0.198627
-0.69978
-0.475136
2.65355
2.34195
3.28944
3.97024
4.59807
2.52014
2.07506
-34.2447
-32.1653
-0.148263
0.149339
0.193356
-29.3941
-31.2995
-31.662
-0.989259
-1.04013
-1.17268
-1.19777
-0.825247
-1.11778
-1.1906
1.716
1.41319
1.03265
0.77883
0.429521
0.0512388
-1.17508
-1.09415
-0.311715
-0.638744
-0.906122
3.09138
3.90841
4.73256
2.93778
2.51668
2.07855
-35.2262
-34.3141
-32.1662
-0.504219
-28.8033
-31.0399
-33.8589
-30.8735
-1.32381
-1.4953
-1.54162
-1.34446
-1.43011
-1.4657
1.64081
1.24273
0.940836
0.469626
-0.00795935
-1.56724
-1.43737
-0.449313
-0.84336
-1.17684
3.75756
4.71409
2.85086
3.50919
2.52523
2.06848
-36.0618
-35.373
-34.3479
-32.1502
-34.9213
-27.3776
-28.5617
-30.7872
-33.9949
-30.6618
-1.76602
-1.98101
-2.32076
-1.92801
-1.7694
-1.93933
1.51309
1.01682
0.453734
-0.103171
-2.15661
-1.8666
-0.628545
-1.10156
-1.51633
4.54673
3.21316
4.19952
2.76704
2.20172
-36.0717
-35.4978
-34.3644
-32.1299
-33.7255
-35.1615
-27.5213
-27.3791
-28.4333
-30.56
-33.9088
-30.6473
-2.3052
-2.89604
-2.43841
-2.56385
-2.70005
1.60685
1.00456
0.37675
-0.258801
-2.53306
-2.25149
-0.862854
-1.40902
-1.88484
3.72352
3.13524
2.45465
-38.6437
-35.9464
-35.5844
-34.3744
-32.1068
-33.7942
-35.3243
-25.4099
-27.5596
-27.3484
-28.3413
-30.3528
-33.7837
-30.5672
-3.21671
-3.36491
-3.41166
-3.36286
1.74517
1.00903
0.258995
-0.473082
-3.13253
-2.76616
-1.15628
-1.77331
-2.31541
-41.4664
-38.7518
-35.8296
-35.646
-34.386
-32.0842
-33.9299
-35.4836
-24.9791
-25.4289
-27.5894
-27.3004
-28.2691
-30.1676
-33.6397
-30.3992
-46.1328
-41.6602
-38.8251
-35.7423
-35.6913
-34.3999
-32.0612
-34.0439
-35.6556
-21.0043
-25.1594
-25.4441
-27.5929
-27.2736
-28.1974
-30.0486
-33.4916
-30.1975
-48.7738
-45.9729
-41.7703
-38.8862
-35.6837
-35.7267
-34.4162
-34.1299
-35.8446
-25.3352
-20.8067
-25.2921
-25.4434
-27.5773
-27.2629
-28.1208
-33.3721
-93.956
-48.3152
-45.9442
-41.8487
-38.9162
-35.6453
-35.7495
-34.18
-36.0188
-20.0851
-26.1163
-20.8155
-25.3564
-25.4419
-27.5525
-27.2688
-33.3187
-30.063
-103.252
-47.1812
-46.0008
-41.908
-38.9222
-35.6258
-34.1807
-21.6781
-20.2047
-26.941
-20.8447
-25.381
-25.4424
-27.5275
-27.2758
-44.182
-30.3358
-112.21
-45.9408
-46.0816
-41.9393
-38.9118
-34.15
-20.939
-21.7449
-20.2739
-27.7272
-20.8795
-25.3831
-25.4491
-27.5179
27.0549
-51.6484
-29.8754
-120.305
-44.6922
-46.1539
-41.9468
-38.8878
-20.8913
-20.8965
-21.8232
-20.3452
-28.4559
-20.9242
-25.3767
-25.4571
34.6287
30.02
-59.9738
-29.2068
-127.445
-43.4311
-46.1583
-41.9307
-20.4723
-20.8357
-20.8561
-21.8783
-20.431
-29.1621
-20.953
-25.3857
47.1953
35.6487
32.9741
-67.6786
-28.4334
-134.189
-42.2745
-46.0921
-20.479
-20.4035
-20.781
-20.8222
-21.9166
-20.5278
-29.8453
-20.9426
49.9521
48.0488
36.7067
35.1235
-74.6797
-27.5358
-141.255
-41.4931
-20.9058
-20.4077
-20.3303
-20.728
-20.7965
-21.9447
-20.6223
-30.271
49.9375
50.4974
48.9445
37.5813
36.913
-81.5543
-26.7449
-146.581
-20.9539
-20.8478
-20.3328
-20.2625
-20.678
-20.7773
-21.9665
-20.691
47.5934
50.5351
51.1033
49.6661
38.4393
38.6046
-89.2098
-26.6201
-21.6922
-20.9086
-20.7918
-20.2639
-20.2025
-20.6329
-20.7616
-21.981
34.883
48.3299
51.1316
51.6527
50.2469
39.3854
40.3347
-95.6866
-20.0387
-21.7633
-20.8672
-20.7371
-20.203
-20.1507
-20.5978
-20.7501
27.4431
36.0298
49.1987
51.6751
52.133
50.7302
40.3946
41.5804
-25.3323
-20.1235
-21.8423
-20.8327
-20.6852
-20.1504
-20.1122
-20.5806
-43.9315
30.5162
37.239
49.9132
52.1543
52.5571
51.1064
41.0455
-21.0007
-26.168
-20.1864
-21.8989
-20.8069
-20.638
-20.1112
-20.0945
-30.2276
-51.6481
33.6151
38.2319
50.4928
52.5769
52.9107
51.3249
-24.8933
-20.7937
-27.0046
-20.2538
-21.9392
-20.7877
-20.601
-20.0931
-94.1789
-30.7832
-60.1474
35.919
39.1565
50.9676
52.9261
53.1113
-25.3725
-25.0738
-20.7951
-27.7902
-20.3344
-21.97
-20.7721
-20.5831
-49.1847
-103.869
-30.4408
-67.9858
37.8875
40.1125
51.343
53.1231
-27.5305
-25.3969
-25.2013
-20.822
-28.5167
-20.4239
-21.9941
-20.7605
-45.901
-48.673
-112.912
-29.8243
-75.1011
39.7893
41.0416
51.5578
-27.2702
-27.5555
-25.4123
-25.26
-20.8571
-29.2196
-20.5135
-22.01
-41.7583
-45.7627
-47.4894
-121.051
-29.078
-82.1064
41.6225
41.5996
-30.6084
-34.3263
-27.2773
-27.5847
-25.413
-25.2811
-20.901
-29.8894
-20.5759
-38.4252
-41.9284
-45.7579
-46.2407
-128.246
-28.2012
-89.7778
43.0597
-28.2532
-30.541
-34.3565
-27.2458
-27.5899
-25.413
-25.2775
-20.9281
-30.3025
-33.9801
-38.548
-42.0248
-45.8293
-44.9829
-135.027
-27.4075
-96.2424
-34.7225
-31.0484
-27.9347
-30.6116
-34.2865
-27.1972
-27.5758
-25.4152
-25.2698
-20.9174
-33.8784
-38.6294
-42.0998
-45.9221
-43.7198
-142.137
-27.3264
-35.0813
-35.8981
-31.8394
-30.8488
-27.8164
-30.5669
-34.2042
-27.1704
-27.5524
-25.422
-25.2769
-35.3347
-34.1603
-33.9972
-38.6945
-42.1561
-46.0005
-42.5472
-147.488
-35.2601
-35.9461
-31.7932
-30.5769
-27.7157
-30.4351
-34.095
-27.1636
-27.529
-25.4309
-35.4194
-34.236
-34.1243
-38.7279
-42.1909
-46.0073
-41.8031
-35.4073
-35.8391
-31.759
-30.3361
-27.6409
-30.247
-33.9772
-27.1678
-27.5192
-35.5371
-34.2438
-34.221
-38.7393
-42.2022
-45.9401
-35.5644
-35.723
-31.7307
-30.1229
-27.592
-30.0388
-33.8857
-27.1736
-35.6272
-34.2513
-34.2779
-38.7301
-42.1881
-35.7382
-35.6343
-31.7031
-29.9254
-27.5414
-33.8508
-35.6916
-34.2582
-34.2852
-38.7075
-35.9003
-35.5761
-31.674
-29.755
-27.4756
-35.7388
-34.2691
-34.2561
-35.5394
-31.6404
-29.6442
-35.7757
-34.2847
-35.521
-31.6172
-35.8005
-34.3014
-3.24482
-3.62947
-3.68139
-4.19489
-4.17256
-4.74151
-3.17423
-3.64061
-2.71783
-3.96059
-4.02744
-4.58035
-4.66939
-5.33269
-5.33409
-6.00107
-8.06067
-8.82766
-8.88901
-9.80384
-9.62541
-5.98105
-6.65785
-4.70991
-5.32851
-3.55871
-4.09082
-2.60516
-3.01619
-2.13393
-10.5552
-10.1888
-4.15173
-4.33846
-4.93435
-5.04158
-5.65365
-5.86941
-6.63311
-6.65887
-7.42367
-7.36493
-8.07556
-8.82491
-9.60922
-9.59868
-10.4382
-10.6187
-11.6201
-11.5138
-6.60181
-7.31694
-7.28406
-8.0735
-8.00492
-8.79322
-9.28029
-5.21346
-5.84413
-3.91152
-4.47315
-2.83429
-3.26507
-1.94091
-2.27173
-1.46028
-8.66239
-9.06313
-12.4824
-13.4031
-10.123
-10.9124
-11.8777
-4.2358
-4.46982
-5.09258
-5.33341
-6.03159
-6.14106
-6.88324
-7.1808
-8.00865
-8.09132
-8.88656
-9.65822
-10.4989
-10.4547
-11.2934
-11.2476
-12.2146
-12.381
-13.0827
-13.4068
-14.5051
-14.0139
-14.8875
-5.68539
-6.46933
-6.5764
-7.25398
-7.44665
-4.26673
-4.88727
-3.01025
-3.5048
-2.01441
-2.3606
-0.702593
-1.18427
-1.44835
-7.116
-7.88701
-7.63486
-8.7843
-10.1508
-14.4628
-12.522
-13.9126
-11.3818
-12.5492
-4.14835
-4.49676
-5.16131
-5.45522
-6.17892
-6.47785
-7.20814
-7.41076
-8.22289
-8.49572
-9.1776
-9.6603
-11.2026
-10.8253
-12.2266
-12.2409
-13.308
-13.233
-13.8692
-14.6553
-15.1185
-15.1778
-16.0917
-15.8048
-15.6454
-16.2068
-16.3346
-17.5299
-4.90224
-5.72431
-5.32647
-6.04006
0.142428
-0.339711
-3.3489
-4.08112
-2.02707
-2.50677
-0.515403
-1.08486
-1.35516
1.03108
0.585582
-5.66288
-6.45281
-6.30595
-18.6667
-17.5985
-19.3004
-7.65758
-8.96577
-10.2594
-11.4374
-13.7212
-14.8543
-16.5247
-15.8649
-12.69
-13.7763
-3.91245
-4.33704
-5.05598
-5.45705
-6.21567
-6.55368
-7.31443
-7.63678
-8.73355
-8.4061
-9.61458
-9.81091
-10.712
-11.2712
-12.8853
-12.3651
-13.8298
-13.9464
-14.63
-15.2061
-15.0749
-20.6275
-21.0385
-19.7843
-16.1793
-15.9488
-16.937
-16.8964
-17.2514
-18.0572
-17.6462
-19.7768
-19.0333
-29.4191
-30.1395
-29.799
-32.4053
-31.2341
-30.7693
-30.9991
-30.6824
-3.67445
-4.2585
-3.71475
-4.40037
0.511029
-0.0592048
-2.11488
-2.68926
-0.252734
-0.940007
-1.26552
1.92336
1.54968
1.57448
1.06432
-3.94193
-4.82675
-7.65964
-4.48504
-6.00721
-29.1132
-27.5404
-23.5002
-22.7412
-21.3624
-16.9774
-18.3704
-19.138
-20.5894
-7.87541
-8.97789
-8.82957
-10.3624
-11.6937
-12.9979
-14.299
-15.1218
-16.4943
-29.8196
-30.7834
-32.3362
-30.6967
-32.1327
-33.794
-32.6427
-31.7981
-33.061
-32.8831
-3.38876
-4.00683
-4.81743
-5.31555
-6.13904
-6.56687
-7.48076
-7.76989
-8.57009
-8.84798
-10.2388
-9.76969
-11.0921
-11.2494
-12.2629
-12.8358
-12.875
-14.2125
-13.8033
-14.9748
-15.682
-15.6298
-16.653
-16.7323
-16.3684
-21.9851
-22.9035
-25.0248
-24.161
-21.6443
-20.7308
-17.6748
-17.7541
-18.3587
-18.6265
-20.5975
-19.4066
-19.0835
-25.6172
-27.602
-27.1669
-27.7157
-27.0968
-29.1849
-29.4279
-30.0107
-32.0844
-31.1097
-31.5489
-31.2676
-31.6554
-31.7661
-32.3078
-31.9986
-31.5429
-31.6643
-2.04421
-2.55294
-1.83826
-2.53672
1.01055
0.318464
0.148366
-0.660184
-0.965386
2.76442
2.45242
2.5817
2.15484
2.24437
1.69563
-1.69856
-2.32357
-3.63982
-3.96899
-5.50064
-6.39481
-2.93358
-24.7459
-27.1916
-26.1101
-29.9349
-28.6085
-24.031
-25.2176
-23.403
-21.4392
-6.45717
-21.1821
-17.4003
-19.77
-18.7325
-7.53516
-8.51211
-10.0568
-10.5476
-12.112
-12.5613
-14.3446
-15.3368
-17.0891
-30.0289
-30.9017
-29.8915
-32.8803
-32.599
-34.1743
-32.3553
-32.2121
-31.41
-31.9466
-33.1794
-32.874
-2.72611
-3.37024
-2.13823
-2.19582
-4.32796
-5.03619
-6.00541
-6.48531
-7.49601
-8.02901
-9.11433
-9.23238
-10.525
-11.3718
-10.2524
-12.0109
-12.612
-13.5633
-14.0839
-14.8985
-13.5543
-14.0919
-15.5851
-15.622
-15.6475
-16.4636
-16.3392
-16.4361
-16.421
-17.1676
-17.2775
-17.9821
-18.3463
-22.5787
-23.5658
-24.644
-24.0191
-22.2552
-21.5665
-19.3112
-19.6157
-21.3969
-20.4225
-20.3348
-25.4593
-25.1061
-25.5148
-28.291
-27.148
-29.0044
-28.7793
-30.4682
-27.5639
-30.0287
-30.2961
-31.736
-31.3491
-31.0015
-32.2476
-30.3163
-31.4121
-0.440858
-0.24683
-0.650237
0.0312244
1.68607
0.928326
0.737422
0.293461
3.5819
3.3466
3.60343
3.24953
3.45468
2.96554
3.07702
2.41843
4.30711
4.16526
4.89116
4.91393
5.47879
5.33296
1.09205
-0.507521
-1.29094
-1.33147
-5.17732
-3.43538
-1.56186
-0.784454
-28.6125
-28.1899
-26.5777
-22.4299
-25.6895
-24.2267
-4.88899
-6.63594
-8.40897
-22.7222
-18.5751
-21.1501
-19.9287
-10.1592
-11.2176
-12.7325
-13.236
-14.8554
-15.4048
-17.4059
-28.9476
-32.6791
-33.3091
-32.1789
-31.203
-34.2021
-35.2158
-34.3829
-35.1965
-33.0248
-33.01
-33.588
-34.3271
-33.9419
-1.31307
-1.82455
-4.31587
-4.37023
-3.12959
-3.7297
-5.68977
-6.24697
-8.04842
-8.09414
-9.19145
-9.66657
-11.271
-11.2229
-12.1085
-12.6966
-13.6625
-13.9844
-14.9085
-14.7506
-15.501
-16.1036
-17.0257
-16.681
-17.3041
-16.9669
-17.6801
-17.7156
-17.9428
-17.8735
-18.6605
-19.0003
-19.648
-20.0242
-24.1695
-22.9136
-23.7958
-23.2245
-22.2191
-20.6234
-21.6087
-21.042
-21.4547
-26.3368
-24.9002
-27.4052
-25.8839
-27.8989
-28.1192
-27.4159
-31.0306
-28.8648
-32.9136
-31.0336
5.5377
5.80781
0.941398
1.14667
2.44115
1.69155
1.82443
2.12985
2.42689
4.5079
4.21099
4.51543
4.1258
4.39838
3.88255
4.13007
3.45966
5.35286
5.2107
6.02119
6.03208
6.63105
6.44229
2.96733
2.54148
2.47372
0.691197
-3.08369
-1.51722
0.15794
1.40405
-24.7085
-26.7279
-27.9182
-3.15984
-5.18841
-7.05309
-9.10137
-10.9636
-22.5746
-24.4054
-18.8495
-21.6782
-12.9851
-14.1971
-16.3779
-16.7944
-19.0322
-28.7968
-31.0208
-30.5823
-33.7235
-31.2356
-32.826
-34.6292
-34.6352
-35.3561
-33.4137
-34.4596
-34.6981
-35.105
-33.9269
-1.1187
-3.10747
-2.28298
-1.92896
-2.37099
-4.07333
-4.97229
-5.35397
-4.07588
-5.2144
-7.91447
-8.15681
-9.57365
-9.04767
-11.9363
-12.1809
-14.3231
-13.2935
-13.273
-14.0645
-14.2803
-15.3042
-15.6129
-16.3189
-16.7361
-17.7508
-18.3078
-18.2104
-17.9852
-18.5705
-18.6868
-18.2532
-19.5212
-19.4331
-19.4542
-19.9153
-21.3392
-24.7084
-24.2773
-23.2647
-22.0778
-21.5031
-22.9177
-22.5904
-22.054
-25.5422
-25.414
-27.3681
-26.5034
-27.6505
-27.7716
-27.8896
-27.5876
5.54503
5.92615
6.58786
6.9291
3.64335
3.02118
3.33457
4.38458
4.28745
5.67131
5.39403
5.84864
5.26868
5.54066
4.88576
4.99389
6.489
6.59587
7.3391
7.29466
8.01567
7.68572
6.15921
4.92006
4.2431
3.41993
4.66172
7.65704
-1.36513
0.293765
2.43275
4.10755
-1.2088
-28.5353
-26.3961
-2.94822
-5.23767
-7.4177
-9.74417
-12.8132
-14.9174
-14.4231
-21.3053
-25.9421
-23.596
-17.7752
-18.3485
-20.9538
-31.9577
-29.9289
-35.0129
-33.5526
-35.6166
-35.6585
-36.1343
-35.2605
-35.3753
-34.0501
-2.96251
-2.40547
-2.71762
-3.80301
-3.9263
-3.30255
-4.04304
-5.79604
-6.84218
-8.02775
-6.40436
-8.10641
-8.09451
-8.95468
-12.9776
-12.2171
-13.7266
-13.8929
-16.7814
-15.0206
-14.8985
-14.1752
-16.1559
-17.6034
-17.1344
-18.3589
-18.548
-18.3341
-19.1679
-18.3624
-19.5032
-20.0039
-20.0583
-18.8749
-20.6517
-20.055
-20.5562
-21.7308
-22.7627
-25.7741
-25.0433
-21.8397
-21.9618
-22.8698
-22.4186
-25.999
-25.8164
-27.056
-26.2316
-27.5526
-26.9758
-3.52532
-3.58874
5.33601
5.84432
6.4782
6.94145
7.66246
8.21383
5.93794
5.79369
6.73794
7.81548
8.42566
7.10321
6.82566
7.31704
6.60182
6.98278
8.08791
8.0876
8.91575
8.82676
9.66882
9.11154
9.63966
7.68628
6.27461
6.64095
10.3804
9.56079
1.03347
2.96813
5.68598
7.29142
1.36176
-0.648714
-2.78173
-32.3995
-28.6711
-5.73929
-8.77972
-12.1328
-14.3884
-18.3175
-19.752
-23.504
-27.3031
-30.3518
-25.0643
-37.579
-35.0786
-38.4067
-38.689
-39.0996
-37.9401
-38.9875
-38.1461
-4.27682
-4.01067
-5.15779
-5.22633
-6.07639
-5.42249
-6.28777
-7.71788
-8.60538
-9.70974
-8.44389
-9.70344
-13.7141
-11.014
-12.1955
-13.1309
-14.1191
-14.0939
-15.2815
-17.5632
-16.0621
-17.4389
-15.9002
-18.7133
-18.05
-20.3129
-18.7523
-19.64
-18.9511
-19.1264
-19.014
-20.0072
-20.3988
-20.3517
-20.5183
-20.1601
-21.3223
-21.1515
-21.8517
-22.141
-23.3866
-22.3079
-24.3975
-23.4794
-23.6356
-25.2127
-24.9458
-25.5766
-25.0549
-3.97043
-4.14409
-4.96388
-4.97851
4.89012
5.4904
6.07357
6.6415
7.2946
7.96154
9.50709
8.8087
4.26573
4.88301
10.594
10.2095
8.37225
8.90461
8.89741
8.56603
9.14975
10.081
9.89302
10.8796
10.6261
11.2717
10.4358
12.0975
12.5939
13.4448
12.5829
9.35846
10.3888
6.29409
4.29354
10.6736
9.10521
5.26735
2.74264
-1.21765
3.62747
-4.13742
-6.85357
-37.5267
-33.8208
-11.1544
-15.6527
-22.5002
-24.3484
-33.4966
-38.4274
-32.7566
-39.8829
-39.9973
-41.5335
-40.99
-42.2722
-40.9675
-5.83087
-6.27408
-6.94059
-7.10055
-8.14719
-7.57128
-9.01281
-9.86183
-10.8742
-11.9165
-10.8861
-11.9217
-14.8397
-13.8821
-13.1854
-14.1668
-17.7694
-14.9703
-15.3126
-16.9458
-16.4445
-18.2063
-17.5134
-17.8094
-17.8354
-19.3117
-18.8094
-19.9208
-20.107
-19.7047
-19.7788
-19.4937
-19.4577
-20.4438
-20.6129
-20.6806
-21.0172
-20.4463
-20.6884
-20.2854
-21.8183
-21.3308
-23.6017
-22.4458
-24.7863
-23.5307
-21.8658
-25.0677
-24.567
-4.25726
-4.4883
-5.19113
-5.41293
-6.18069
-6.39099
5.38462
6.06897
6.62348
7.36254
10.8175
9.0096
9.97458
8.13238
3.53164
4.1268
4.52402
5.22281
2.71938
3.31002
1.85937
2.42941
12.5973
11.2472
10.8659
11.851
11.1165
11.9133
12.3863
12.061
13.2497
12.4715
12.7777
12.085
11.9001
14.074
15.0243
15.2646
16.5467
15.9735
13.7486
13.0964
10.0532
8.13679
14.4295
13.1019
8.93264
6.54341
-0.305301
-5.19614
6.48976
2.62407
-8.56682
-13.9725
-45.3207
-42.7378
-23.1661
-31.65
-40.7508
-46.1496
-39.6807
-46.3224
-44.2684
-46.3654
-46.0277
-7.35165
-8.14411
-10.2968
-10.3699
-9.39644
-9.40765
-11.1464
-12.1639
-13.079
-13.9289
-13.4562
-14.167
-16.0169
-15.0048
-14.7021
-15.2927
-18.0261
-17.8718
-16.9299
-18.3736
-16.9274
-17.4181
-18.6646
-18.9683
-18.2211
-19.4514
-19.4347
-20.6748
-20.2648
-20.2632
-20.1897
-20.1334
-20.758
-20.7205
-20.5489
-20.7323
-20.6257
-20.4035
-21.1898
-20.5759
-21.2682
-23.6345
-21.4562
-21.7796
-25.155
-21.6884
-7.76122
-4.21458
-4.51045
-5.23257
-5.57767
-6.32753
-6.63714
-7.32827
-4.18902
-4.4761
-3.99135
-4.35352
-3.66313
-4.06706
0.998527
1.49157
0.141718
0.563956
-0.694114
-0.320605
-1.44574
-1.1678
-3.25918
-3.7025
-2.72582
-3.19213
-2.12869
-1.92302
-2.60501
5.69113
6.54518
7.17695
8.1521
10.0898
11.0173
8.97655
3.60219
4.2956
4.67236
5.43289
2.59028
3.24891
1.5225
2.12699
10.8837
13.5837
14.9974
13.7219
14.221
13.8404
15.3939
14.7646
15.8216
14.9596
13.1393
13.3417
11.8663
16.4356
16.8006
17.1467
18.4918
18.3632
20.0882
20.0898
17.7352
17.2865
14.4119
12.3521
18.9318
17.5983
12.6626
9.82022
-10.494
-1.30323
-8.94203
8.40045
2.91923
-20.4238
-24.7384
-47.7598
-50.1507
-35.476
-65.8309
-55.7543
-54.133
-46.7726
-8.80708
-9.57549
-11.7084
-11.897
-12.0022
-10.7206
-11.4642
-13.5265
-13.9995
-15.1061
-15.3915
-15.0097
-15.9809
-15.6792
-16.3762
-17.1852
-16.2456
-19.42
-18.8717
-17.726
-18.0831
-18.8907
-18.5403
-19.5044
-19.4518
-20.3932
-20.4021
-20.5687
-20.466
-20.9442
-20.9303
-20.8476
-21.1571
-20.8845
-20.9683
-20.9371
-20.637
-21.0529
-20.6388
-20.4847
-24.777
-20.7043
-9.10993
-7.58622
-8.39558
-5.12876
-5.53837
-6.25266
-6.64507
-7.31575
-4.90288
-5.30059
-4.61885
-5.06433
-4.20759
-4.6823
0.489414
1.00498
-0.482433
-0.062624
-1.43923
-1.06309
-2.23664
-2.0151
-3.65996
-4.17288
-3.00688
-2.78995
-3.55183
5.86806
6.89346
7.45146
8.72749
9.5448
3.47542
4.25442
4.51945
5.4237
2.19326
2.91325
0.879257
1.54794
8.93546
11.2155
9.77272
17.2364
16.9882
16.4396
18.2464
17.4555
18.0387
15.9696
14.3261
14.0937
12.2693
20.2391
18.9336
19.0956
21.9473
21.8806
23.9626
24.0665
22.1802
22.3314
19.1452
17.1165
24.1597
22.6567
17.4531
13.8754
-13.137
-21.6838
-2.22585
-12.0522
11.0925
3.37604
-28.8263
-30.5546
-40.3033
-87.8674
-80.1544
-10.0526
-10.692
-11.6292
-12.718
-13.4424
-13.2103
-13.2476
-12.6696
-16.0354
-16.6198
-17.202
-17.2174
-16.4503
-17.7427
-17.054
-17.8953
-18.2174
-18.5575
-18.2499
-18.0679
-19.7461
-19.4148
-18.8836
-19.0875
-19.7518
-19.4565
-20.1532
-20.4306
-20.6381
-20.6596
-21.165
-20.9996
-21.0334
-21.1531
-21.3869
-21.3457
-21.3935
-21.3204
-19.9983
-21.58
-20.818
-30.1336
-9.04748
-9.89873
-7.73484
-8.62935
-5.97603
-6.44543
-7.29746
-5.77367
-6.28853
-5.31466
-5.89617
-4.68308
-5.26965
-0.257891
0.222532
-1.33401
-0.915098
-2.3899
-2.01937
-3.22036
-3.03732
-4.02613
-3.85306
-4.61288
5.76929
7.01021
7.63949
7.1876
3.00174
3.87622
4.05389
5.09657
1.4941
2.2775
0.00858469
0.793073
9.28462
7.83806
11.5987
10.0771
17.4562
17.4203
21.0628
20.3144
19.6511
18.7251
21.3885
21.0684
12.4124
16.8137
15.2354
14.1271
23.373
23.2514
25.8058
25.5257
27.0521
27.9145
26.5239
28.0088
24.0414
22.3439
28.7617
27.5362
23.6717
19.7561
21.5335
-18.7783
-28.5254
13.9886
-6.03621
-17.6504
-32.2179
-28.1789
-13.8481
-10.2192
-11.0415
-11.7351
-12.7223
-13.6016
-15.9018
-14.4747
-15.3587
-17.6909
-17.2426
-18.7453
-18.8115
-17.2592
-18.574
-19.0898
-19.2035
-19.3583
-18.9387
-19.2456
-19.4979
-19.3933
-19.3508
-20.2201
-20.0213
-19.7595
-19.8378
-20.1572
-21.043
-20.5729
-20.7598
-21.0884
-21.1039
-21.2532
-21.2467
-21.0516
-21.1677
-21.8488
-21.1479
-9.10106
-9.82008
-7.20078
-7.74246
-8.64121
-6.60086
-7.2407
-5.91627
-6.57409
-5.18368
-5.85614
-1.20482
-0.726535
-2.43459
-1.98781
-3.54424
-3.24085
-4.37096
-4.22939
-5.05853
7.10233
5.32583
6.20897
5.82482
2.31041
3.19545
4.16576
3.38037
0.710989
1.52737
-1.00036
-0.21566
9.06469
7.081
5.74326
11.3874
9.6367
17.9108
20.6843
19.5882
20.4538
24.9443
23.5883
24.7822
22.6667
22.9421
14.951
12.4472
17.6583
16.3055
19.2509
27.6078
27.138
30.855
33.3041
30.3958
31.1671
31.7709
32.4661
33.4395
28.7628
29.7277
29.8667
25.4849
27.0552
25.7204
21.2179
-21.4989
-39.5077
-36.076
-15.8454
-10.2842
-14.3958
-14.8913
-11.31
-11.5981
-12.4494
-12.9869
-13.6787
-14.3195
-16.1863
-15.9634
-17.5494
-17.2568
-19.756
-19.7998
-18.7279
-18.967
-20.1952
-20.0095
-19.3674
-19.3429
-20.006
-20.0897
-20.1311
-20.6596
-20.5194
-20.3398
-20.5576
-20.9216
-20.7986
-21.0972
-21.0329
-20.9977
-20.9739
-21.0169
-21.0554
-10.2853
-8.01155
-8.60414
-9.36527
-9.66937
-7.30905
-8.02783
-6.50916
-7.21343
-5.65193