/*--------------------------------*- C++ -*----------------------------------*\
  =========                 |
  \\      /  F ield         | OpenFOAM: The Open Source CFD Toolbox
   \\    /   O peration     | Website:  https://openfoam.org
    \\  /    A nd           | Version:  8
     \\/     M anipulation  |
\*---------------------------------------------------------------------------*/
FoamFile
{
    version     2.0;
    format      ascii;
    class       surfaceScalarField;
    location    "2000";
    object      phi;
}
// * * * * * * * * * * * * * * * * * * * * * * * * * * * * * * * * * * * * * //

dimensions      [0 3 -1 0 0 0 0];

internalField   nonuniform List<scalar> 
6926
(
-1.05308
0.0710304
-0.652857
-0.575153
0.174931
-0.941648
0.0740222
-0.11292
-0.539937
0.0688486
-0.756921
-0.752278
-0.0144388
-0.635251
-0.0481789
0.234424
-1.05805
-0.0648818
0.0131677
-0.583536
0.177766
-0.717703
-0.644037
0.466534
-0.586708
0.133342
0.0251469
-0.66014
-0.828081
-0.244412
-0.409726
-0.067918
0.0526743
-0.568293
0.156253
-0.873956
-0.555702
-0.534205
0.000170974
-0.533755
0.257371
-0.680505
-0.165025
-0.767876
-0.57277
-0.794974
-0.217314
-0.210007
0.0233041
-0.38159
-0.191513
-0.574195
-0.122765
-0.751191
-0.896195
0.12969
-0.13117
-0.592823
0.119815
-0.423187
-0.812396
0.072386
-0.511072
0.000171648
-0.528536
-0.00504826
-0.53411
-0.00349319
-0.102483
-0.938837
-0.388219
0.252407
-0.436958
-0.563079
-0.0424531
-0.10126
-0.471843
-0.185245
-0.511715
0.0459093
-0.7971
-0.113066
-0.705418
0.225661
-1.06843
-0.00149961
0.0947435
-0.787325
-0.00262116
-0.533632
-0.788735
-0.00795578
-0.612508
0.000175531
-0.525005
-0.00335992
0.153228
-0.139929
-0.827723
-0.818035
-0.527905
-0.0112531
-0.534207
-0.0323656
-0.0383873
-0.648043
-0.523781
0.0443699
-0.420776
-0.236312
-0.886582
-0.834035
0.036935
0.000159858
-0.699401
-0.00617667
-0.867638
0.024869
-0.983456
0.0335762
-0.727567
-0.256032
-0.533914
-0.0107252
-0.522747
-0.753592
-0.13176
-0.14349
-0.759402
-0.849008
0.00018691
-0.528042
0.00321319
-0.519904
-0.0113607
-0.174014
-0.682409
-0.389418
-0.612318
-0.528254
-0.0172063
-0.534173
-0.0219738
-0.0363954
-0.567278
-0.89008
0.056045
-0.223853
-0.625794
0.143547
-0.0273553
0.275693
-0.391885
-0.332063
-0.558017
0.359358
-0.547874
-0.083548
0.00017738
-0.61603
0.840962
-0.470747
-0.453763
-0.0328526
-0.958587
-0.0773626
-0.642653
-0.375951
0.0707693
-0.422385
-0.0980923
-0.533891
-0.0226718
-0.521967
-0.00891483
-0.513655
0.584358
-0.592635
-0.0690851
-0.425328
-0.512199
-0.437888
0.252504
-0.292857
-0.349065
0.0160357
-0.522933
0.461579
-0.65956
-0.0258718
-0.387626
0.000197179
-0.54668
0.0188241
-0.510652
-0.00603907
-0.51625
-0.0233644
-0.132559
-0.586246
-0.209274
-0.535603
-0.532877
-0.018502
-0.0516421
-0.53761
-0.301366
-0.0149852
0.288996
0.869893
-0.234842
0.300144
0.00805327
-0.053582
-0.346356
-0.284694
-0.0086182
-0.129034
-0.472422
-0.687051
-0.0295158
0.000198061
-0.586712
0.121513
-0.621776
-0.575133
0.242882
-0.991439
-0.0208529
-0.551031
-0.0688958
-0.544593
0.0134379
-0.533915
-0.0348675
-0.521696
-0.0225191
-0.508363
-0.00238066
-0.511076
0.191057
-0.68722
0.672159
-0.357304
-0.383941
-0.0403504
-0.461781
0.0515079
-0.440923
0.000841254
-0.472267
0.0787549
-0.504954
-0.466579
0.107163
-0.41371
0.000211957
-0.580621
0.0341385
-0.529824
0.0379968
-0.524825
0.00253596
-0.528242
-0.027999
0.0949349
-0.0988363
-0.531701
-0.542953
-0.542602
-0.0135093
0.359347
-0.406338
0.0320061
0.413501
-0.286752
-0.344298
-0.325623
-0.0893331
0.20807
-0.895121
-0.551104
0.00945719
0.000227808
-0.596397
-0.00644627
-0.605872
-0.641764
0.0601853
-0.748557
-0.000268532
-0.537325
-0.00140868
-0.543452
-0.0429896
-0.525793
-0.0408309
-0.503384
-0.0173795
-0.493364
0.0130065
-0.523855
-0.188884
-0.497495
-0.494069
0.0511251
-0.0133602
-0.478688
-0.509492
-0.0243448
-0.461282
0.034476
-0.540839
0.30676
-0.77359
0.000251074
0.000213215
-0.610629
0.0302202
-0.583766
0.0880805
-0.111286
-0.375542
-0.457051
-0.0686552
-0.552052
-0.0185493
0.00471984
0.00261638
-0.539038
-0.551742
0.360357
-0.328689
0.000337985
0.000267777
-0.635156
-0.0347655
-0.418413
0.000390448
-0.325918
-0.00317798
-0.30606
-0.236257
-0.640765
-0.133745
-0.761376
0.00536268
0.000277356
-0.602037
0.00296427
-0.603474
-0.633403
-0.00539636
-0.688372
-0.0441518
-0.536163
-0.038439
-0.549165
-0.0529973
-0.513627
-0.0641142
-0.456649
0.0143355
-0.494693
0.0282309
-0.551808
0.0543073
-0.513901
-0.467533
0.00716951
-0.514045
0.00966149
-0.48118
0.0131544
-0.464775
-0.0280939
-0.551184
-0.624778
0.0143621
-0.62507
0.000543464
-0.628611
0.0750646
-0.363019
-0.205319
-0.65048
-0.590313
-0.0303937
0.00383109
0.00331996
-0.546189
-0.566461
-0.617999
-0.00680336
-0.605542
-0.0121198
-0.453631
0.000452255
-0.59075
-0.0144015
0.000514329
-0.457323
-0.0388527
-0.503464
-0.108637
-0.665873
-0.00799599
-0.75338
0.011774
0.000328058
-0.614139
-0.0325894
-0.55911
-0.623945
-0.0420482
-0.693768
-0.0531079
-0.536052
-0.0432463
-0.559027
-0.0973189
-0.480422
-0.368773
-0.0735401
0.0840416
-0.550504
0.0266138
-0.578094
-0.018017
-0.523978
-0.472395
-0.00509643
0.00681843
-0.482902
-0.515822
0.00921872
-0.467175
-0.0294158
-0.565015
-0.638209
0.0239609
-0.630363
-0.0073026
-0.668038
0.0926231
-0.76518
-0.0304525
0.00622512
0.00398145
-0.556395
-0.590629
-0.619335
-0.017832
-0.606077
-0.0253771
-0.574874
-0.015423
-0.590999
-0.0294795
-0.0118906
-0.562469
0.000578582
-0.496754
-0.0381544
-0.573947
-0.00804386
-0.665825
0.0780458
-0.831426
0.0925004
-0.707007
0.000367251
-0.0311261
-0.435484
-0.359096
-0.295974
-0.735816
-0.0733239
-0.560047
-0.0497558
-0.582595
0.332894
-0.617625
-0.221069
-0.157893
-0.549502
0.000387524
0.065667
-0.589557
-0.593879
0.0161519
-0.0156558
-0.537738
-0.478832
0.00295946
-0.5148
-0.00158317
-0.47836
-0.00292265
-0.465836
-0.0296298
-0.585141
-0.65972
0.0156421
-0.638116
-0.0289061
-0.691709
0.019152
0.00257495
-0.0149361
-0.544034
-0.618507
-0.613729
-0.0422194
-0.602414
-0.0366914
-0.570492
-0.0359301
-0.593475
-0.0384191
-0.0324985
-0.549884
-0.00215611
-0.559735
0.000635166
-0.535544
-0.00249438
-0.579496
0.0851709
-0.67295
-0.12691
-0.704516
0.492506
-0.395559
-0.25484
-0.302074
-0.665724
-0.366067
0.0226576
0.108155
-0.526371
-0.0830664
-0.698049
-0.059417
-0.606244
0.0557556
-0.607714
-0.527254
0.000409943
-0.600873
0.00738175
0.027473
-0.600878
0.00891419
-0.490669
-0.558453
0.0251905
-0.0333405
-0.47021
-0.504545
-0.0267962
-0.47238
-0.0315941
-0.612964
0.0193085
-0.490353
0.414872
0.0561731
-0.69999
0.0239236
-0.625175
-0.103722
-0.0495365
-0.0104721
-0.484025
-0.648891
-0.600068
-0.0673264
-0.582229
-0.0545303
-0.555978
-0.0734271
-0.0246019
-0.596046
-0.0822997
-0.506177
-0.00588046
-0.54616
0.0103003
-0.5694
0.000694309
-0.538732
0.0367386
-0.531064
-0.532693
-0.292503
0.152247
0.00353779
-0.663141
-0.0224784
-0.682038
0.105472
-0.771196
0.562669
-0.709354
0.00179856
0.0448118
-0.572982
-0.525879
0.000423462
-0.0388868
-0.603407
-0.00156592
-0.643565
0.0299704
-0.610212
-0.601387
0.000923914
0.0137511
-0.607247
0.0116417
-0.601689
-0.505824
0.0617754
-0.0301366
-0.501848
-0.453242
-0.123233
-0.379284
-0.0680922
-0.546437
0.960472
-0.645463
-0.315008
-0.368036
0.541164
-0.153819
-0.562196
-0.296193
0.42627
-0.184481
0.173082
0.696716
0.319928
0.192337
0.292666
-0.0587328
-0.322825
-0.614442
-0.947793
-0.474946
-0.576568
-0.688684
0.146412
-0.553685
-0.189529
0.00326026
-0.581548
-0.605558
-0.0639154
-0.316085
-0.371772
-0.00292016
-0.509137
0.0193016
-0.555161
-0.42445
0.135484
0.0237261
-0.592432
0.00075017
-0.502744
-0.439731
0.0609134
-0.490552
-0.195067
0.100156
-0.782194
0.0632701
-0.453666
-0.721549
-0.0606445
-0.008988
-0.762208
-0.67353
-0.00521563
-0.0725227
-0.495243
-0.531538
0.000443418
-0.599163
-0.0018002
0.0201539
-0.59359
-0.168
-0.455412
0.02595
-0.62241
-0.604321
-0.00200193
0.0475963
-0.717377
-0.581461
-0.575678
-0.305454
-0.437185
-0.277253
1.01864
-0.0482192
0.373176
-0.504029
0.427086
-0.0704031
-0.551934
0.530858
-0.132742
-0.669086
-0.179041
-0.0184523
-0.703097
0.656844
-0.0177739
-0.657522
0.604484
0.0216251
-0.0438792
-0.58223
-0.0824132
0.77913
-0.410597
0.135584
0.46735
0.411032
0.0172173
0.397705
-0.0293513
-0.40193
-0.78819
-0.638693
0.208536
-0.430735
-0.397487
0.165328
-0.592803
0.0450643
-0.690527
-0.429444
0.179022
-0.174028
-0.0824007
0.23892
-0.472604
-0.457093
0.0359146
-0.52575
0.0453778
-0.576813
-0.364637
0.0603905
0.0287049
-0.620386
-0.442625
0.000793973
0.520224
-0.3621
-0.094854
-0.104287
0.682707
-0.0865081
-0.133059
0.595873
-0.00916273
-0.550786
0.574416
-0.00200539
0.0375095
-0.799718
-0.708543
0.142092
-0.261262
-0.376073
-0.389914
0.00046797
-0.598115
-0.000604263
-0.0101986
-0.595923
0.0799111
-0.647552
-0.812685
-0.611064
-0.013348
0.14187
-1.1365
-0.745045
0.984561
-0.10559
-0.188554
0.462202
-0.00174775
-0.611502
0.526926
-0.0481663
-0.727597
-0.0629464
-0.0407925
-0.660609
-0.743889
0.049548
-0.0582196
-0.573559
0.00271254
0.637805
-0.00300308
-0.637515
-0.498525
0.0137547
-0.00183402
0.45543
0.792884
0.329875
0.0793231
0.410295
0.0046269
0.434988
-0.00213706
-0.20739
-0.939584
-0.787044
0.277336
-0.509495
0.0405974
-0.588336
0.0950517
-0.546659
-0.260171
0.0745561
-0.366609
-0.0675902
-0.0821522
0.111776
-0.502228
-0.50333
0.056773
-0.537145
0.102098
-0.650206
-0.38304
0.00080588
0.013072
-0.632664
0.423706
-0.466708
-0.0518517
-0.0471903
-0.547127
-0.0526403
-0.037762
0.566588
-0.0013343
0.637962
-0.00216218
0.116149
-0.915867
-0.853656
-0.0495996
-0.571663
0.766505
-0.66963
-0.0974261
0.000551473
0.000517751
-0.595948
-0.00169995
0.0012419
-0.597769
-0.243689
-0.426552
0.000610068
0.707355
-0.416078
-0.340877
0.0464549
-0.125529
-0.640701
-0.786951
-0.475078
-0.0433891
1.01381
0.84137
-0.0610597
-0.0747819
0.550938
-0.0257597
-0.633537
0.526806
0.0585644
-0.750204
0.0537207
0.640015
-0.639906
-0.0031127
-0.895642
0.151752
-0.697957
-0.197684
-0.567076
0.0622611
-0.269416
-0.366404
0.692615
0.100269
-0.00534206
0.00327785
-0.00335888
-0.637434
-0.432986
0.639951
0.145353
0.45385
0.0357679
0.442161
-0.00254642
0.580505
-0.0317044
-0.136961
-0.170051
-0.632572
-0.64667
0.123
-0.591898
0.0769512
-0.570235
0.0872034
-0.522087
-0.309243
0.000758876
-0.377489
0.000656056
-0.0673774
0.0745849
-0.509436
-0.513935
0.0737336
-0.508781
0.00130475
-0.638439
-0.635259
0.00340008
0.425137
-0.477158
0.000169821
0.000457521
-0.529565
-0.000233922
-0.000739169
0.637922
-0.00129458
0.639813
-0.00195961
0.223785
-1.13965
0.727297
-0.272302
-0.698684
-0.0174115
0.163616
-0.562282
-0.587833
-0.58882
-0.00661012
-0.590814
0.0025457
0.00496818
-0.604437
-0.699533
0.000679402
0.0561337
-0.646337
-0.673599
-0.283403
0.0894983
-0.538666
-0.224431
0.399852
-0.577112
-0.715927
0.896987
-0.0131858
-0.0388364
0.425006
0.510817
0.559343
0.454466
0.822653
-0.0260029
-0.00233275
0.544943
-0.0438968
-0.609178
0.526644
0.141099
-0.910894
0.355436
-0.63883
-0.00443462
0.473111
0.156672
-0.632896
-0.590842
-0.245649
-0.483699
-0.304828
0.0128603
-0.624914
-0.70754
0.218499
0.0326799
0.00365747
-0.00155168
-0.639539
-0.416468
0.542553
0.0566507
0.480881
-0.00295222
0.611598
-0.0336385
0.569845
-0.0566061
-0.0315725
-0.511501
-0.555242
-0.102572
0.0483237
-0.484418
0.0553628
-0.570309
0.0635111
-0.546543
0.0692792
-0.516781
-0.636071
0.00157145
-0.636544
0.00112901
-0.0685708
0.0673334
-0.508198
-0.508772
0.00939426
-0.51687
-0.636493
0.00145456
-0.63698
0.000893079
-0.637373
0.000563389
-0.63771
0.000102385
-0.000526772
0.639434
-0.000915313
0.421407
0.0497447
-0.390772
0.386645
0.1608
-0.191984
-0.947668
-0.0519132
-0.838754
-0.0417824
0.135336
-0.655836
-0.624647
-0.581786
-0.0292609
-0.533327
-0.0459133
0.0450145
-0.522208
-0.752134
0.000686905
-0.484452
-0.161206
0.323694
-0.76547
-0.675636
-0.424207
-0.475861
0.85995
0.012764
0.415482
0.405632
0.265075
0.575413
-0.508712
1.06806
0.456571
0.831368
-0.000401047
-0.0818582
0.534535
-0.0517884
-0.51931
0.526401
0.134008
0.130855
-0.294729
-0.634961
-0.00542081
-0.542927
-0.0944043
0.276526
-0.179184
-0.488114
0.519704
0.0555287
-0.433375
0.129315
-0.320853
0.00390812
0.0105195
-0.653967
-0.283245
0.540898
-0.00336593
0.62756
-0.0189147
0.640157
-0.10395
0.538643
-0.0607141
0.0663617
-0.59314
-0.00806448
-0.455113
-0.507944
-0.0389191
0.0200481
-0.465547
0.0390165
-0.545814
0.0533202
-0.530584
0.0615388
-0.510987
-0.636496
0.00157426
-0.636966
0.00159852
0.00968507
-0.509063
-0.00287132
-0.495642
-0.532364
0.0169484
-0.637537
0.00146453
-0.638186
0.00121236
-0.638844
0.000760468
6.27607e-05
0.412485
0.00800664
0.389094
0.0472957
-0.24137
0.140905
0.261265
0.221554
-0.186397
-0.0411858
-0.906483
-0.0344826
-0.845457
0.0117442
0.0683239
-0.735904
-0.642164
-0.376224
-0.311853
0.115616
-0.446826
-0.315354
0.0936334
-0.300488
-0.787351
0.000734507
-0.443282
-0.0404831
-0.102717
-0.373843
-0.0768791
-0.620267
-0.486378
-0.177651
1.04812
0.734724
0.333332
0.290065
-0.272849
0.388416
0.0702106
0.484929
0.133349
0.898635
0.820535
0.0364139
0.726612
0.0120647
0.525955
-0.0513425
-0.497911
0.52611
0.105809
-0.437326
0.0702701
-0.00544347
-0.618243
-0.00619918
0.29707
-0.104371
-0.371883
-0.527854
-0.0204933
-0.0989308
-0.483588
0.00401723
0.0483327
-0.706317
0.600082
-0.00365492
0.645974
-0.02178
0.625287
-0.00404453
0.508067
-0.0733744
0.520725
-0.0554833
-0.0934223
-0.538637
-0.00725242
-0.427812
-0.47618
-0.0256207
0.00965107
-0.449578
0.032116
-0.52461
0.0488658
-0.517911
-0.0168115
-0.497046
0.542547
-0.513807
-0.0271411
0.011757
0.0242079
-0.516323
-0.00451322
-0.466921
-0.477944
-0.0343984
-0.447588
-0.029144
0.424792
-0.0122448
-0.0220351
0.390892
0.00620841
0.114819
-0.163825
0.189911
0.42338
0.225028
-0.1673
0.240985
-0.130313
0.0418677
-0.94835
0.0355844
-0.839174
-0.752517
0.000751055
-0.271671
0.0877026
-0.551936
-0.467907
0.101015
-0.454207
0.00999705
-0.413202
-0.430826
-0.011721
0.00881853
-0.423145
0.0317427
-0.564307
-0.548057
-0.110582
0.789901
0.187905
0.587371
0.624716
0.110008
-0.468176
0.563637
0.23787
-0.0251287
0.483755
0.0814394
0.536839
-0.0511516
0.481611
-0.804699
0.715487
0.101277
0.0894349
0.52122
-0.0464529
-0.509048
0.525769
0.0890872
-0.584187
0.145409
0.125856
-0.563208
-0.00670215
0.273614
-0.322502
-0.0554836
-0.565095
0.0310419
-0.0593246
-0.41149
-0.484322
-0.0197596
-0.711341
0.200875
-0.195851
-0.069022
-0.355518
-0.00681474
0.608353
-0.00484689
0.530404
-0.0263817
0.50752
-0.0601695
-0.0490553
0.514792
-0.0347691
-0.529488
-0.00881777
-0.409343
-0.452881
-0.0229522
0.00632935
-0.432955
0.0306676
-0.506412
-0.0140576
-0.520665
-0.464141
-0.0374184
0.609105
-0.494711
-0.141535
0.104539
0.00420678
-0.366588
-0.457816
-0.071293
-0.434359
-0.0526011
0.416125
-0.0374774
-0.0402695
0.297586
0.132002
-0.159962
0.309249
0.0406232
0.21152
-0.146454
0.21605
-0.142364
0.230359
-0.0870578
0.193167
-1.14152
0.0429453
-0.688952
-0.710301
0.000728792
-0.426439
-0.00363622
-0.122847
0.0875764
-0.516665
-0.489739
0.0645735
-0.508784
0.00118794
-0.405571
-0.423944
-0.0109215
0.0516263
-0.528357
-0.5312
-0.0130471
0.759816
0.424796
-0.107343
0.472448
0.055607
0.557094
0.0369011
0.525341
0.599579
0.0251364
0.55599
0.117655
-0.277573
0.422324
0.0931197
0.038273
0.526922
-0.00172715
0.487415
0.286285
-0.0822474
-0.026735
0.626314
-0.820419
0.729093
0.192603
0.126846
0.0480106
0.796662
0.51828
-0.0389636
-0.400053
0.525436
-0.0362953
0.622534
0.232415
0.36789
-0.684679
0.112881
-0.357947
-0.0238793
-0.500014
0.0467341
-0.00700868
-0.424241
-0.544982
-0.00638697
-0.00565097
-0.545107
-0.146386
-0.0416063
0.510831
0.547485
-0.0219276
0.534117
-0.0529788
-0.0521506
0.506773
-0.0378552
-0.514585
-0.0100857
-0.392928
-0.432299
0.025878
-0.0268754
-0.431958
-0.340158
-0.119777
0.00892895
-0.529399
-0.51809
-0.0399929
0.506742
-0.388753
-0.259524
-0.200004
0.633416
-0.318933
-0.367084
0.17337
-0.251054
0.511163
0.190197
0.151961
0.421278
-0.169135
0.21995
-0.150354
0.207915
-0.11992
-0.937461
-0.204056
0.305846
-0.731495
-0.263304
-0.405074
0.000619783
-0.425075
-0.000635219
-0.42439
-0.00319089
-0.0836666
0.0755861
-0.508585
-0.508833
-0.00262295
-0.504973
-0.417811
0.0013181
0.0558328
-0.508604
-0.513223
-0.87049
-0.0669709
-0.88764
0.0171495
0.018534
0.633938
-0.00779677
0.535852
0.0546772
0.539318
0.0368219
0.526792
0.552874
0.0282526
0.477436
0.0625417
0.387912
-0.00850664
0.040023
0.485172
0.407323
-0.00215616
-0.0497569
0.575896
0.684392
-0.0580777
0.746014
-0.0616222
0.906461
-0.160447
0.362533
-0.343711
0.945396
0.0392691
0.685139
0.452861
0.94511
0.131907
0.68329
-0.516012
0.504261
-0.029856
-0.0295395
0.525148
-0.193554
0.169378
0.748177
-0.518134
0.131001
-0.373101
0.00814489
-0.423193
0.0456871
0.545783
-0.00394949
-0.00571091
0.435861
-0.19206
-0.390188
-0.301283
0.219009
0.0471349
-0.0421455
0.499272
0.505815
0.560935
-0.0487463
-0.0855329
0.539327
0.0313633
-0.520071
0.0241083
-0.447479
-0.395695
0.0147333
-0.0348086
-0.411882
-0.511256
-0.126611
0.00338011
-0.572772
0.47158
-0.557734
-0.23968
0.538529
-0.309737
-0.0385954
0.323405
0.256131
-0.144589
0.213826
-0.16301
0.207231
-0.14967
-0.839777
-0.0957737
-0.668837
0.000458811
-0.424755
0.000299361
-0.424659
-0.000365486
-0.422411
0.00140953
0.0122385
-0.0265664
-0.494257
-0.499217
-0.508327
0.00467266
0.0343739
-0.516233
-0.500796
0.523465
-0.325293
0.164361
-0.848508
-0.0582404
-0.307893
0.059593
0.566549
0.0523634
0.538165
0.049473
0.526667
0.0893548
0.47746
0.48538
0.0203095
0.432915
0.0175386
0.401399
-0.0025826
0.0315228
0.451493
0.467139
-0.0315165
-0.207906
0.725724
-0.104374
0.363607
-0.407557
0.209588
-0.127325
0.667539
-0.00343752
-0.599656
-0.151613
-0.092563
0.394545
0.682471
0.431326
0.416079
0.588438
0.154445
-0.0851494
0.685853
-0.521717
0.485481
0.00638031
-0.0261085
0.0297379
0.524885
0.486811
-0.0434761
-0.392375
0.100183
-0.367519
0.0401051
0.598805
-0.0418187
-0.202906
0.282829
-0.271983
-0.252481
0.234028
-0.321523
0.148158
-0.0990512
0.519333
-0.00848753
0.408708
0.575516
-0.0849354
0.0268914
-0.532229
0.0401958
-0.484295
-0.390308
-0.0453844
-0.0721983
-0.2943
0.671495
-0.541343
-0.369832
-0.0278869
0.245351
-0.47968
0.162259
-0.458252
0.469771
-0.252236
0.260113
-0.190876
0.216131
-0.171911
-0.764789
0.000178786
-0.424749
0.000453235
-0.424919
0.000559199
-0.424245
0.00146821
-0.527626
0.0207085
0.00412402
-0.0117465
-0.486635
-0.49042
0.052396
-0.541738
-0.460147
-0.436388
0.292855
-0.822835
-0.000194598
-0.0794834
0.144266
0.523654
0.539429
0.0612388
0.5264
0.140194
0.475828
0.0746783
0.434305
0.446754
0.00647079
0.421925
-0.00298689
0.016882
0.432028
0.42062
-0.00538265
0.297179
0.0190669
0.604567
0.0562194
-0.315518
0.0887187
-0.424692
-0.0181505
0.582165
0.0189638
-0.52364
-0.0526649
-0.0340377
0.241961
0.594955
0.572891
0.400101
0.33912
0.190864
0.524727
0.438072
0.0402515
-0.630725
0.378801
0.258305
-0.131949
0.479841
-0.144516
-0.072419
-0.0529406
0.525461
-0.339801
0.0724652
0.584487
-0.0507898
0.242694
0.0698096
-0.221892
0.212105
-0.262418
0.174922
-0.297166
0.105523
-0.660973
0.413099
0.197084
-0.226575
0.269712
-0.087579
-0.0175812
-0.560032
0.146238
-0.65842
-0.316268
-0.137008
-0.47356
0.247653
-0.455227
0.268312
-0.27822
0.193665
-0.383605
0.23342
-0.225543
0.219788
-0.194533
-0.424823
0.000252772
-0.425175
0.000709407
-0.425131
0.0014454
-0.557161
0.0310028
-0.0496438
-0.0710466
-0.365944
-0.519356
0.143597
-0.702916
-0.387596
-0.529218
-0.000761481
-0.424833
-0.000184728
-0.074542
0.525777
0.526125
0.16662
0.499974
0.181991
0.368516
0.0308719
0.420315
0.431761
-0.00336557
0.00502436
0.424017
0.430059
-0.00368087
0.453017
-0.00389058
0.513129
-0.0038929
-0.439105
-0.00139431
-0.455169
-0.00208722
0.535805
-0.00371215
-0.505079
-0.00275465
-0.00331146
0.238915
0.52484
0.525095
-0.203385
0.596163
-0.288918
0.516721
0.0419094
0.0615751
0.418394
0.101698
-0.36528
0.479069
-0.189628
0.199509
0.515579
-0.358121
0.206038
-0.236653
0.18634
-0.257248
0.135005
-0.196076
0.251054
-0.245073
0.246081
-0.087305
0.358953
-0.13831
-0.55873
-0.0242631
-0.386503
-0.128398
-0.369425
0.116004
-0.377566
0.228649
-0.27345
0.158331
-0.313287
0.217592
-0.223347
-0.425358
0.000435062
-0.425656
0.00123501
-0.556065
0.000349962
-0.0955153
-0.658025
-0.583868
-0.162849
-0.678377
-0.424764
-0.000830424
-0.425461
-8.14279e-05
0.179381
0.513364
0.515531
0.173888
0.508076
-0.00405215
0.40344
0.00595124
0.419388
0.421548
-0.000896885
0.421216
-0.00334909
0.421624
-0.00429813
0.422291
-0.00456017
-0.424525
-0.00163314
-0.424127
-0.00248569
0.422972
-0.00439318
-0.423597
-0.0032845
-0.00393616
0.208105
0.516499
0.529561
-0.250831
0.481714
-0.343872
0.277011
0.108771
0.136097
0.135959
0.444809
-0.127436
0.317142
-0.188443
0.198129
0.505894
-0.23295
0.202336
-0.227571
0.156662
-0.209341
0.227444
-0.216526
0.253266
-0.136052
0.278479
-0.213458
-0.47367
0.00441502
-0.274914
-0.0970579
-0.267952
0.08536
-0.304595
0.192198
-0.248056
0.142198
-0.263286
-0.426013
0.000792101
-0.51476
-0.0400704
-0.105063
-0.715812
-0.688581
-0.492832
-0.399003
-0.425429
-0.000862759
-0.426236
0.000140825
0.179718
0.507534
0.506806
-0.0172691
0.521293
-0.00482215
0.414213
0.419988
-0.00149697
0.420848
-0.00420954
0.421776
-0.00522594
0.422669
-0.00545345
-0.425206
-0.00185621
-0.424789
-0.00290188
0.423488
-0.00521175
-0.424207
-0.00386707
-0.00465511
0.212534
0.502093
0.491263
0.133704
0.483969
-0.398462
0.379796
0.182444
-0.115349
0.296438
0.0171264
-0.00302357
0.491791
-0.204125
0.178891
-0.183722
0.207041
-0.161076
0.23062
-0.12763
0.245032
7.48893e-05
-6.11889e-05
6.43358e-06
-2.01525e-05
-0.190801
-0.379927
0.00413112
-0.193685
-0.074845
-0.188976
0.0716924
-0.23409
9.53024e-05
0.000135511
-0.000155938
-0.510883
-0.00308456
-0.401814
-0.326838
-0.119657
-0.246265
-0.349889
-0.275346
-0.337143
-0.225981
-0.363822
-0.426252
-0.000846872
-0.499432
-0.0113108
0.0244373
0.499495
0.514702
-0.0224166
0.538887
0.418383
-0.0056669
0.420583
-0.00640965
0.422081
-0.00672402
0.42316
-0.00653294
-0.42602
-0.00208797
-0.425552
-0.00336994
0.424104
-0.00615575
-0.424911
-0.00450805
-0.0054616
0.0692574
0.55571
0.568327
0.156846
0.509567
-0.0614312
0.325878
-0.0864539
0.255263
-0.0258756
0.231744
0.362458
0.0351368
0.430778
-9.53898e-06
9.36001e-05
-0.000145264
-4.60663e-05
5.23621e-05
1.36517e-07
-0.154085
-0.300687
0.00312096
-0.125114
-0.0618789
-0.123976
1.0174e-05
0.000540308
-0.000455189
-2.50005e-05
0.000114438
0.00130402
0.0036381
-0.00493197
0.16447
-0.569368
-0.408633
-0.30314
-0.322095
-0.247649
-0.315476
-0.207151
-0.310756
-0.494358
-0.00592064
-0.477788
-0.102891
0.043289
0.491343
0.535574
0.54282
-0.00959967
0.498823
0.0375875
0.451361
0.0407383
0.423186
0.0216419
-0.487128
-0.00931787
-0.451293
-0.0392052
0.413278
0.00375263
0.421769
-0.0139534
-0.0340314
0.315115
0.39744
0.100711
0.347424
-0.0221335
0.261557
0.256946
0.289914
0.0331718
0.0986367
0.23065
0.110112
0.353838
-1.36105e-05
-7.93719e-05
8.34413e-05
9.71591e-05
4.87946e-05
-0.000104
0.000106544
-2.42755e-06
-0.132813
-0.229754
-1.39069e-06
0.000516698
-7.70813e-05
8.74997e-05
0.00163014
0.00085229
-0.00117844
0.000977148
0.00265955
-0.423041
-0.288732
-0.284006
-0.285739
-0.240816
-0.28181
-0.182706
-0.260863
-0.489685
0.00597601
-0.175496
-0.350436
0.106406
0.495049
0.632381
0.485379
0.184589
0.432053
0.0940646
0.406674
0.0470211
-0.550904
0.051901
-0.43251
-0.157599
0.39705
0.0133765
0.401725
-0.0186291
-0.064816
0.176548
0.321603
0.0620948
0.263195
0.135663
0.21992
0.190651
0.27581
0.12803
0.238282
0.207109
0.274759
5.35228e-05
-0.000556353
0.000489218
8.94103e-05
-7.16179e-05
0.000137879
1.74331e-05
-0.000125815
0.000126678
-3.30444e-06
-0.00160444
-0.00480948
0.0064674
0.00188352
0.000714545
-0.000967936
-7.3196e-06
0.000446927
-9.83877e-05
6.00593e-05
0.0012351
0.000594308
0.000749676
0.00190255
-0.30387
-0.268868
-0.270014
-0.256541
-0.217
-0.247516
-0.166071
-0.313295
-0.51053
-0.402429
-0.056201
0.42772
0.274438
0.416055
0.196254
0.394942
0.115178
0.378477
0.0634869
-0.296147
0.0732558
-0.179538
-0.364019
-0.0897261
0.368877
0.0229756
0.365379
-0.0151302
-0.0634568
0.125419
0.258279
0.170351
0.240219
0.15382
0.247409
0.182684
0.22595
0.237732
0.219711
6.21459e-05
-0.000529086
0.000125103
-5.88732e-05
0.000146591
-2.49849e-06
-0.00012794
0.000128675
-4.0633e-06
-0.00211743
-0.0009358
0.00144874
-0.00123099
-0.00351636
0.00217155
0.000932452
-0.00122051
0.00143492
0.000514716
-8.26017e-06
0.000356795
-0.000103858
3.59572e-05
0.000950647
0.000393307
0.000577353
0.00131693
-0.303851
-0.23503
-0.249878
-0.223663
-0.420059
-0.197087
-0.355287
-0.120973
-0.212814
-0.0692167
0.311498
0.200672
0.346315
0.161437
0.348398
0.113095
0.341978
0.0699064
-0.29124
-0.101112
-0.303098
-0.0778682
0.333107
0.0318469
0.322835
-0.00485859
-0.0437198
0.162831
0.231208
0.1822
0.20658
0.223651
0.17826
-0.00259691
-0.000956949
0.00143663
4.95312e-05
-0.000453538
0.000134633
-4.69353e-05
0.000139027
-1.28793e-05
-0.000120268
0.000119754
-3.59107e-06
-0.00159318
-0.000573595
-0.000955199
-0.00251165
0.00240515
0.000681829
-0.00091544
0.00166802
0.000699334
0.00109972
0.000365653
-7.07161e-06
0.00026
-0.000100531
1.61864e-05
0.000732017
0.000238623
0.00045052
0.00085934
-0.289876
-0.195032
-0.31411
-0.172853
-0.283403
-0.151679
-0.230475
-0.122145
0.268684
0.155639
0.29704
0.133081
0.306626
0.103509
0.305408
0.0711245
-0.242936
-0.0886504
-0.264762
-0.0560427
0.297548
0.0397067
0.28456
0.00812976
-0.0239219
-0.00335949
-0.00179782
0.00256054
-0.00193132
-0.000618784
3.31842e-05
-0.000352107
0.000129347
-3.72954e-05
0.000123223
-1.63973e-05
-0.000105337
0.000105083
-3.38649e-06
-0.00120619
-0.000322606
-0.000749791
-0.00172869
0.00260691
0.000961061
-0.00116284
0.001854
0.000495838
0.00129438
0.000504644
0.000849218
0.000248442
-5.0518e-06
0.000164504
-9.24072e-05
3.21615e-06
0.00056859
0.000120442
0.000352924
0.000501362
-0.00443951
-0.00304156
0.00412168
-0.00250889
-0.00122012
-0.00143354
-0.000391354
1.90502e-05
-0.000241849
0.000114407
-2.85538e-05
0.00010076
-1.2127e-05
-7.91794e-05
7.57928e-05
-0.000917481
-0.000154879
-0.0005903
-0.00111935
0.00256893
0.000145379
-0.000107403
0.0020471
0.000767945
0.00143347
0.000356757
0.00100291
0.000350931
0.000653838
0.000163281
-2.8566e-06
7.49326e-05
-7.59633e-05
0.000436945
3.6248e-05
0.000276914
0.00022159
-0.00574304
-0.00497821
0.006281
-0.00340477
-0.00214568
-0.00186104
-0.000792579
-0.00107339
-0.00023542
9.3323e-06
-0.000136843
9.10994e-05
-1.89645e-05
6.36656e-05
-0.000697478
-4.76429e-05
-0.000466642
-0.000643374
0.000829232
-0.00662283
0.00836252
0.00203484
0.000157639
0.0016095
0.000591877
0.00111288
0.00024678
0.000779479
0.00022517
0.000503832
9.65129e-05
-1.03078e-06
0.000325837
-1.29094e-05
-0.00780081
-0.0118303
0.0138886
-0.0045814
-0.00380199
-0.00256764
-0.00143896
-0.00137124
-0.00049461
-0.000795279
-0.00013761
2.39685e-06
-4.82044e-05
4.47011e-05
-0.000529395
1.52416e-05
-0.000364461
-0.000276515
-0.000244988
-0.0028811
0.00395528
0.000583703
-0.00517172
0.00161903
0.000148131
0.00127449
0.000430253
0.000862199
0.000164156
0.000600845
0.000127977
0.000374858
4.76453e-05
0.00020765
-0.000220559
-0.00668266
0.00453976
-0.00565547
-0.00650452
-0.0099059
-0.00360469
-0.00276713
-0.00191028
-0.00089992
-0.00100915
-0.000280572
-0.000592272
-7.4733e-05
-3.50333e-06
-0.000385393
3.63467e-05
-0.000480477
-0.000165184
0.000400692
-0.000271566
-0.00202584
0.000392773
-0.00394549
0.00128784
0.000134777
0.00100592
0.000286387
0.000669953
9.51749e-05
0.000453942
4.86519e-05
0.000255295
-0.00628179
-0.00101995
0.000620324
-0.00559148
0.00363118
-0.00543714
-0.00807011
-0.00281634
-0.00186023
-0.00138594
-0.000523125
-0.000730372
-0.000142148
-0.000430321
-2.98042e-05
-0.000243672
0.000280019
-0.00046627
4.74876e-05
-6.1703e-05
-0.000414849
-2.19106e-05
-0.00027852
-0.00135454
0.000248948
-0.00290661
0.00102024
0.000120587
0.000787774
0.000168354
0.000504581
4.47068e-05
0.000303947
-0.00465466
0.00833647
-0.00996252
-0.00531579
-0.00129635
-0.00466225
0.00286684
-0.00451714
-0.006367
-0.00216467
-0.00109141
-0.000978411
-0.000275209
-0.000519219
-5.2846e-05
-0.000273475
-0.000282039
0.000728848
-0.000913091
-0.000400539
3.31718e-05
-0.00035199
5.15372e-05
-0.000271012
-0.000834593
0.000139948
-0.00202645
0.000806464
0.00010208
0.000605575
6.70699e-05
0.000348654
-0.00294277
0.00703393
-0.00874898
-0.00386593
0.00688934
-0.00448333
-0.0014818
-0.00386407
0.00221676
-0.00377062
-0.00474835
-0.00160714
-0.000473964
-0.000668926
-0.000125668
-0.000326322
2.5712e-06
0.00100961
-0.00129422
-0.000237731
0.000566023
-0.00034076
2.1953e-05
-0.00029438
7.48969e-05
-0.000253145
-0.000441406
5.49604e-05
-0.00127513
0.000640982
6.69335e-05
0.000415724
-0.00145865
0.00434967
-0.00583547
-0.00236691
0.00553202
-0.00318451
0.00559624
-0.00379835
-0.00154797
-0.00319596
0.00168799
-0.00314482
-0.00319212
-0.00111743
-4.0204e-05
-0.000452017
0.000294651
0.00103433
-0.0013264
2.08208e-06
0.00076979
-0.000198805
0.000424035
-0.000288212
1.57752e-05
-0.00024279
6.44446e-05
-0.000227031
-0.000159293
-2.49392e-05
-0.000609415
0.000482657
-5.597e-06
0.00490477
-0.00635841
-0.00119377
0.00317602
-0.00189375
0.00423328
-0.00263638
0.00443556
-0.00323868
-0.00154954
-0.00261841
0.0012204
-0.00261969
-0.00166475
-0.00049217
0.000486267
0.000761618
-0.000953212
0.000247405
0.000789008
1.66652e-06
0.000569323
-0.000165214
0.000301018
-0.000240334
1.34002e-05
-0.000198796
3.60526e-05
-0.000190532
6.43956e-06
-0.000126757
0.00140314
0.00474716
-0.00615634
-5.55644e-06
0.00371571
-0.000976255
0.00225828
-0.00150831
0.00310242
-0.00216115
0.00339067
-0.00283948
-0.00139552
-0.00208146
0.000768028
-0.00215664
0.000494508
6.77479e-06
-1.49839e-05
0.0004176
0.000591427
0.000206653
0.000583998
1.32645e-06
0.000402761
-0.000136571
0.000197137
-0.000198098
1.28198e-05
-0.000159376
4.70328e-06
-0.000120318
0.00278369
0.00405201
-0.00543314
0.00115506
0.00358667
-4.17076e-06
0.00274285
-0.000798675
0.00154801
-0.00120003
0.00210763
-0.00177682
0.00238146
-0.00256111
-0.000999406
-0.00138876
0.000254662
-0.000212254
0.000452101
0.000423946
4.40578e-07
0.000354458
0.000443639
0.000171602
0.000413715
1.05727e-06
0.000265206
-0.000111434
0.000110274
-0.000157446
1.10308e-05