/*--------------------------------*- C++ -*----------------------------------*\
  =========                 |
  \\      /  F ield         | OpenFOAM: The Open Source CFD Toolbox
   \\    /   O peration     | Website:  https://openfoam.org
    \\  /    A nd           | Version:  8
     \\/     M anipulation  |
\*---------------------------------------------------------------------------*/
FoamFile
{
    version     2.0;
    format      ascii;
    class       surfaceScalarField;
    location    "0.048";
    object      phi;
}
// * * * * * * * * * * * * * * * * * * * * * * * * * * * * * * * * * * * * * //

dimensions      [0 3 -1 0 0 0 0];

internalField   nonuniform List<scalar> 
662
(
-2.02985e-05
1.61344e-05
4.16428e-06
2.07663e-05
-4.10648e-05
-8.80374e-05
3.59081e-05
6.82637e-05
-1.73731e-05
2.15373e-05
-0.000152091
8.48195e-05
1.04127e-05
-5.14775e-05
9.37105e-05
-7.51755e-05
-2.25964e-05
4.41338e-05
-0.000180919
3.92411e-05
1.72331e-06
-5.32008e-05
2.20096e-06
-0.000121787
-4.69075e-06
0.000124277
-3.42201e-05
3.64211e-05
0.000164342
-9.3228e-05
5.59484e-05
-1.18146e-05
-0.000183894
4.69793e-06
-7.67073e-07
-5.24338e-05
1.15353e-06
-0.000116934
-6.00703e-06
-3.30666e-05
5.76695e-05
-1.72109e-06
0.000196045
-4.35177e-05
-0.000181904
-2.75701e-06
-2.22602e-06
-5.02077e-05
3.65681e-06
-0.000103307
-1.72834e-05
-2.94098e-05
5.74109e-05
2.58655e-07
0.00019874
-4.41608e-06
-1.52329e-06
0.000123263
-0.000123467
1.7274e-06
3.45698e-05
-3.60931e-05
-0.000177471
-6.65819e-06
-4.10497e-05
-9.15808e-06
-2.18964e-05
-1.91533e-05
-1.71545e-05
-4.74181e-06
4.83177e-06
-8.80865e-05
-2.00523e-05
-2.45781e-05
-0.000141468
-0.00075651
0.000897978
6.06821e-05
-3.27127e-06
8.98099e-05
-2.91278e-05
-5.1658e-05
0.000199453
-4.54605e-07
-4.22817e-07
0.000120493
3.19204e-06
3.4147e-05
-0.000153202
-3.34278e-05
-9.62478e-05
-7.61072e-05
-4.39607e-05
-6.94416e-05
2.21402e-05
-2.6882e-05
3.45414e-06
-7.67748e-05
-1.47658e-05
-2.11239e-05
-0.000390612
0.00070536
-0.00107126
-0.000953895
0.00185187
0.000216906
-2.07237e-05
0.000293612
-0.000105834
-0.000148657
-3.58821e-06
0.000106869
1.7213e-05
3.05588e-05
-0.000116354
9.45337e-05
2.72679e-05
-5.41498e-05
-2.77034e-07
-3.90794e-07
-7.6107e-05
-2.1401e-05
0.00135486
-0.0016034
-0.000107464
0.00195934
-4.16231e-06
9.28146e-05
1.82164e-05
2.63965e-05
-0.000197866
0.000108779
-6.58977e-05
1.17478e-05
0.0016159
-0.0003685
0.00199292
-3.35808e-05
-2.85402e-06
8.00786e-05
1.55901e-05
2.35425e-05
-6.82192e-05
2.32149e-06
-0.000228673
4.25548e-05
0.00199101
1.90846e-06
0.00171126
-0.000128944
-5.42565e-06
2.96402e-05
5.5864e-05
1.81168e-05
-6.76449e-05
-5.74232e-07
-0.000232842
6.49046e-06
-1.74527e-08
-0.000112306
0.000108871
3.45281e-06
-3.15469e-05
3.15294e-05
0.00196109
2.99158e-05
0.00173147
-1.82998e-05
-0.00180571
0.000950129
0.000855584
-6.82056e-05
5.60693e-07
0.00191695
4.41426e-05
0.00187816
3.87916e-05
7.24465e-05
0.000156749
0.00079338
9.93588e-05
5.73897e-05
3.11532e-05
-0.00023356
1.44626e-07
-4.12145e-07
-0.000113048
1.15405e-06
-3.1959e-05
0.00171189
4.94996e-05
-0.00017205
-7.87458e-06
4.15505e-05
0.000138374
-0.00136388
0.000783608
0.00143586
-0.000244602
1.16024e-05
0.00167137
8.46613e-05
0.001584
0.000126161
0.000292565
0.000416212
0.00116078
0.000321802
0.0001518
0.000108353
-8.56282e-08
-0.000111951
-1.01074e-06
-3.20446e-05
-0.000179551
-1.51403e-06
9.01505e-06
-5.33054e-05
4.54308e-05
4.77019e-07
-0.000109848
-2.58093e-06
-3.15676e-05
-0.000164417
4.63917e-06
-1.97738e-05
-5.48194e-05
1.65973e-06
-9.96702e-05
-1.18371e-05
-2.99078e-05
-0.000142565
7.19544e-06
-2.90469e-05
-5.01803e-05
7.86596e-06
-4.25113e-05
-6.50249e-05
-2.20419e-05
-0.000127603
4.2278e-06
-1.91897e-05
-4.29849e-05
3.91838e-06
-2.0135e-05
-0.000111387
-3.87571e-05
-3.48387e-05
0.00050135
-0.000416531
-0.00013963
0.000207894
0.00036172
0.000132719
-0.000956586
0.000519921
0.000436665
-0.000538068
-0.000418518
-0.000667044
0.000371307
0.000295737
-0.000147124
-0.00074941
0.000211342
-0.000121566
-0.000627844
-0.000367487
0.000245922
0.00021055
-0.00062708
-0.000643337
0.000853887
-0.00106186
4.15559e-05
-0.0006694
-0.0010203
-0.000587839
-0.000100897
-0.000568503
-0.000372178
-0.000473075
-0.000415496
0.000548214
-0.000800111
0.00123678
-5.3776e-05
0.0001157
0.00112108
0.000487007
0.000454986
9.9158e-05
0.000387849
0.000422771
-0.000127034
0.000521929
-0.000470837
0.000343804
-0.000617961
-0.000406619
-0.000160698
3.64211e-05
0.000213441
-0.000801281
-0.000806858
-0.00137536
-0.000796583
-5.81554e-05
-0.00131721
-0.000479082
-0.000537237
-0.000241429
0.000696416
0.000879648
0.0012675
0.000652898
0.000241629
0.00102587
0.000404624
0.000117305
0.000646253
0.000184244
0.00015956
0.000301549
3.60931e-05
0.000120971
-0.000917553
-0.00119624
-0.00092031
2.97064e-05
-0.00122594
-0.000554521
-0.000524814
-0.000169585
0.000822483
0.000856282
0.000818067
0.000441727
0.000204526
0.00129801
0.000303276
0.000507802
1.38544e-05
-0.000934165
-0.00121209
-0.000940823
-0.00127369
6.16003e-05
-0.000831572
-0.000442116
-0.000544867
-0.000483266
0.000781189
3.68782e-05
0.000780734
0.00131073
-1.27173e-05
0.0013476
0.000510994
0.000498277
-0.000329924
-0.000610899
-0.0011615
-0.000947023
-0.000214473
-0.000644327
-0.000391391
-0.000555632
0.000397045
-0.000611518
-0.000699562
0.000257446
-0.000302517
-0.000498032
-0.000240586
0.000919186
-0.000138452
0.000898463
0.00142319
-7.55857e-05
0.00128474
0.00051549
0.000439904
0.000308586
-0.000459817
0.000151231
-0.000302931
-0.000694322
-0.000135371
-0.000324446
0.000352534
-0.000428641
-0.000291793
-0.000847425
6.10745e-05
-0.000908499
-0.000633247
-0.000127581
-0.00030106
-0.000197023
-0.000102489
-0.000392618
9.01009e-05
-0.000241388
-0.000240977
-0.000150876
-0.000160594
-8.07937e-05
-0.000295965
-0.000134218
-0.000161748
0.001441
-0.00158966
0.00200572
-0.000564726
0.000934465
-0.000668931
0.000856084
4.23789e-05
0.00075025
-0.000839406
-0.000832129
0.000874508
0.00135165
-6.69162e-05
0.000519526
0.00045812
0.000391204
0.000558319
-0.00139772
0.00139265
-0.000834327
0.000495039
-0.000629256
-0.000170593
-0.000462655
0.000100402
-0.000401462
0.000808097
-0.00127075
-0.000503951
-0.000438254
-0.000191003
-0.000395172
-0.000531668
9.34141e-05
2.38824e-05
-0.00055555
-0.000248384
9.7508e-05
-0.000329178
0.000490925
-0.000397511
-2.1401e-05
-0.00224382
0.0016791
-0.000851178
0.00101017
-0.000739746
-0.000111431
0.000641666
0.00124641
-0.000371907
-0.000151311
0.000656302
-0.000136777
0.000284396
0.000406794
0.000270018
0.00051707
-1.85446e-05
-0.000498525
-8.5552e-05
-0.000748775
-0.000825298
-0.000308228
0.000306403
-0.000457713
-0.000442372
-0.000866197
-0.000404554
-0.0010572
-0.00103332
-0.000799726
-0.000757171
-8.53452e-05
-0.000947972
-0.000499115
-5.64356e-05
-0.00058446
-0.000257111
-0.0001404
-0.000313547
-3.15294e-05
-0.000729001
0.00061757
-0.000747546
0.00125924
0.00113029
-0.000290413
-0.000457133
0.000485849
-0.000776261
0.000491864
-0.000207469
3.41508e-05
0.000730794
-0.000244946
0.000232269
0.000299658
9.21894e-05
0.000340145
-0.000107876
3.19171e-05
0.000226987
-0.000192837
-0.000215385
-0.000183467
-0.000379151
0.000134205
-0.000122237
-0.000825735
-0.000879409
-0.000872918
-0.000443261
-0.000141199
-0.001269
-0.000310094
-0.000451293
0.000184531
-0.000641665
0.00131482
0.00129652
-0.000439123
-0.000337138
-0.00108079
-0.0003376
-0.000674738
0.00016617
-7.39808e-05
-2.66664e-05
-0.000210134
0.00031801
-0.000183805
1.81168e-05
-4.54308e-05
-0.000928457
5.55387e-05
-0.000928312
-0.00122965
-3.93487e-05
-0.00117411
-0.000450139
-0.000489488
0.00128102
1.55002e-05
0.00133052
-0.00101799
-6.27934e-05
-0.00100249
-0.000665723
-0.000728517
0.00117262
0.000263237
0.0023334
-0.000915111
-1.32018e-05
-0.000903508
-0.00102696
-0.000147145
-0.00104017
-0.000490498
-0.000637643
0.00132516
5.36155e-06
0.00140982
-0.00113362
0.000131131
-0.00112826
-0.00074829
-0.00061716
0.00113864
-0.000846078
0.00140188
-0.000898664
-4.84423e-06
-0.000790311
0.00126284
0.000146978
0.00138901
0.000542927
-0.0018111
0.00102079
-0.000674093
0.00207597
-0.0016593
0.00110443
-8.36435e-05
0.000865798
-0.000870642
-0.00124702
0.000206857
-0.000381224
-0.000640224
-0.000433367
0.000630771
-0.000483793
-0.00120548
7.72138e-05
-0.000574706
-0.000646207
-0.000568993
-0.000299927
0.000842854
0.00177605
0.00116738
-6.29462e-05
0.000296738
-0.000839343
0.000355551
3.51115e-06
0.000782336
0.000993709
0.000698693
0.000443837
0.000254855
0.000380891
-0.000646466
0.000265242
-0.000349728
-0.000445204
-0.000179962
-0.000771915
0.000197209
-0.000416365
-0.000588182
-0.000390974
-0.000590924
0.000594435
0.000402785
-0.000491349
0.000141621
-0.000110457
-0.000633549
0.000217185
-3.91139e-05
-0.000310793
0.000200336
-5.5938e-05
0.000346847
-0.000222473
-8.08529e-05
-0.000411109
-0.000193924
-0.000340149
0.000146225
-0.00016792
8.70668e-05
3.2416e-05
-0.000379263
-2.20419e-05
3.48387e-05
)
;

boundaryField
{
    movingWall
    {
        type            calculated;
        value           uniform 0;
    }
    fixedWalls
    {
        type            calculated;
        value           uniform 0;
    }
    frontAndBack
    {
        type            empty;
        value           nonuniform List<scalar> 0();
    }
    defaultFaces
    {
        type            empty;
        value           nonuniform List<scalar> 0();
    }
}


// ************************************************************************* //
