/*--------------------------------*- C++ -*----------------------------------*\
  =========                 |
  \\      /  F ield         | OpenFOAM: The Open Source CFD Toolbox
   \\    /   O peration     | Website:  https://openfoam.org
    \\  /    A nd           | Version:  8
     \\/     M anipulation  |
\*---------------------------------------------------------------------------*/
FoamFile
{
    version     2.0;
    format      ascii;
    class       volVectorField;
    location    "0.048";
    object      U;
}
// * * * * * * * * * * * * * * * * * * * * * * * * * * * * * * * * * * * * * //

dimensions      [0 1 -1 0 0 0 0];

internalField   nonuniform List<vector> 
656
(
(0.743373 0.0565317 -9.65392e-25)
(0.927889 0.0140692 1.86663e-24)
(0.954789 -0.00127368 0)
(-0.0910748 0.118995 2.39999e-23)
(0.556744 0.0977247 1.12098e-23)
(0.841242 0.000939692 0)
(-0.0571797 0.0672286 -4.93914e-23)
(-0.0145962 0.0188463 9.85098e-24)
(0.968225 -0.000150822 0)
(-0.000504581 0.138603 -2.37837e-24)
(-0.00304959 0.193133 -7.83535e-23)
(-0.117738 0.172055 0)
(0.376008 0.139834 1.00526e-23)
(0.715019 0.00930625 0)
(0.890982 0.00127405 -1.70656e-22)
(0.906546 0.000582179 4.77863e-23)
(0.00104049 0.0823446 9.70649e-24)
(0.00137431 0.0267222 0)
(0.971846 -7.64491e-05 -3.4333e-23)
(0.913622 0.00029722 -1.4371e-22)
(-0.0123884 0.0928741 7.71144e-23)
(-0.00523405 0.0628732 0)
(-0.0239222 0.125114 1.33371e-24)
(-0.00789627 0.242545 1.5399e-22)
(-0.136115 0.223439 -1.67665e-22)
(0.210345 0.18042 -2.26588e-23)
(0.577672 0.0245856 0)
(0.800687 0.00637497 2.66432e-22)
(0.829456 0.00302884 -8.91562e-23)
(-0.00144232 0.0356653 0)
(-0.00015155 0.0114452 0)
(0.916924 0.000157112 5.1346e-23)
(0.973361 -4.71739e-05 -3.66584e-23)
(0.842887 0.00161292 1.95804e-22)
(0.849314 0.000806298 -5.18082e-23)
(0.853895 6.13707e-05 -1.08895e-22)
(-0.00677954 0.0608923 -1.0539e-22)
(-0.00280701 0.040926 1.70723e-23)
(-0.0137921 0.0825109 -1.88341e-22)
(-0.0408483 0.158561 -1.57708e-22)
(-0.0167105 0.28282 1.66509e-22)
(-0.143742 0.269548 -4.77821e-24)
(0.0686505 0.217915 4.55147e-22)
(0.433178 0.0474093 0)
(0.696537 0.0162272 0)
(0.739323 0.00801816 -3.69798e-22)
(-0.000821627 0.0230292 -5.40293e-24)
(-0.000128829 0.00732346 0)
(0.854803 -0.000882443 1.20159e-22)
(0.919377 2.78708e-05 -2.78127e-23)
(0.973988 -2.04291e-05 4.92924e-24)
(0.759661 0.0043445 0)
(0.769598 0.00217547 0)
(0.776638 0.00014672 -1.06673e-22)
(0.778177 -0.0023708 4.59757e-22)
(0.763444 -0.0060353 0)
(-0.0103746 0.0366079 2.00153e-22)
(-0.00502157 0.0257433 2.95173e-22)
(-0.0020283 0.0165201 -2.87543e-22)
(-0.0250259 0.104802 -1.85279e-22)
(-0.019344 0.0489392 5.84839e-22)
(0.286801 0.0796625 -1.328e-22)
(0.578438 0.0319759 1.75128e-22)
(0.635119 0.0165629 -5.20744e-22)
(-0.000553613 0.00884929 4.53757e-23)
(-6.71306e-05 0.00256242 6.09114e-23)
(0.84474 -0.002239 -2.54694e-22)
(0.919922 -0.00014605 8.54591e-23)
(0.974663 1.28277e-05 5.47906e-24)
(0.726646 -0.0151878 -1.16703e-23)
(0.662543 0.00909731 0)
(0.676229 0.00464431 1.93319e-22)
(0.686107 0.000375355 2.04144e-22)
(0.688682 -0.00481123 -8.82429e-22)
(0.669458 -0.0125278 2.27309e-22)
(-0.00839929 0.013938 8.88522e-22)
(-0.00405402 0.00914119 -6.82969e-24)
(-0.00182792 0.0055077 0)
(-0.000643719 0.00295487 1.05782e-22)
(0.447742 0.0558071 0)
(0.516844 0.0303366 6.6608e-22)
(-8.94859e-05 0.00127437 -1.00146e-22)
(5.5317e-05 0.000241685 -3.08662e-23)
(0.604713 -0.0240822 4.71856e-22)
(0.820181 -0.00592174 1.49706e-22)
(0.914418 -0.000373847 0)
(0.975006 4.21059e-05 -5.28413e-23)
(0.6198 -0.0302102 -2.88807e-22)
(0.468103 -0.0472206 7.26238e-22)
(0.251444 -0.190745 -8.79135e-22)
(0.550633 0.01704 0)
(0.567859 0.00871144 4.66315e-23)
(0.580882 0.000972012 -1.45205e-22)
(0.585169 -0.00871271 5.11941e-22)
(0.56225 -0.0231537 -8.69726e-22)
(-0.0147948 0.00626458 3.73823e-22)
(-0.00925087 0.00306724 -3.98902e-22)
(-0.00537541 0.00139828 -1.97756e-22)
(-0.00279877 0.000480503 3.91397e-22)
(-0.00116717 4.39175e-05 4.71357e-23)
(-0.000203559 -6.20364e-05 -2.8501e-23)
(-0.13674 -0.250211 5.90067e-23)
(0.411922 -0.147961 -6.13868e-23)
(0.732733 -0.00901326 -7.95907e-22)
(0.901144 -0.00112344 0)
(0.973726 0.000109784 0)
(0.499492 -0.0539102 5.52197e-22)
(0.325368 -0.0809796 -2.77365e-22)
(0.106231 -0.230012 1.02588e-22)
(-0.141432 -0.29815 1.3843e-21)
(-0.0465813 0.0112517 0)
(-0.034024 0.00583837 1.86892e-22)
(-0.023595 0.00285761 -6.60081e-22)
(-0.014991 0.00114533 1.8407e-22)
(-0.0079292 0.000287739 -4.38595e-23)
(-0.00212871 2.18827e-05 -2.72309e-23)
(-0.00756036 -0.288922 0)
(-0.12067 -0.194908 0)
(0.582901 -0.103401 4.88194e-22)
(0.850363 -0.000878071 -3.99612e-23)
(0.970594 0.000203343 -1.03051e-22)
(-0.0155903 -0.332775 -1.6465e-21)
(-0.0759817 0.010001 0)
(-0.0568506 0.00552293 1.93189e-22)
(-0.0403639 0.00276163 -1.41575e-24)
(-0.0262642 0.00117115 9.55108e-23)
(-0.0142701 0.000360311 -4.48839e-23)
(-0.00411629 7.18664e-05 0)
(-0.0276351 -0.164098 -5.51178e-22)
(-0.00297003 -0.233152 0)
(-0.0949987 -0.136197 5.08315e-22)
(0.757884 -0.0597745 0)
(0.956548 0.0013521 7.64209e-23)
(-0.0467019 -0.204864 0)
(-0.0980296 0.00827432 0)
(-0.0741289 0.00460107 1.2011e-22)
(-0.0531508 0.00234016 -3.48242e-22)
(-0.0349271 0.00102672 1.12677e-22)
(-0.0192324 0.00034512 5.03601e-23)
(-0.00578234 8.90168e-05 -1.68787e-23)
(-0.0156545 -0.118816 2.82624e-22)
(-0.014544 -0.123225 0)
(-0.000251315 -0.169168 -4.45516e-22)
(-0.0605238 -0.0776083 4.30417e-22)
(0.931394 -0.014722 0)
(-0.0284312 -0.148319 0)
(-0.106912 0.00722142 1.53198e-22)
(-0.0809345 0.00407695 -1.47901e-22)
(-0.0581196 0.00207291 1.43112e-22)
(-0.0382631 0.000904037 -2.73969e-22)
(-0.0211404 0.00030417 3.76767e-22)
(-0.00649998 7.85993e-05 -5.02337e-23)
(-0.0133414 -0.0676697 2.43781e-22)
(-0.00771844 -0.0889454 -5.2204e-22)
(-0.00596641 -0.0839835 1.52074e-22)
(0.00181132 -0.100745 -4.61979e-22)
(-0.0141887 -0.021402 1.30993e-23)
(-0.0240847 -0.0866048 0)
(-0.0154193 -0.0450574 -5.49889e-23)
(-0.107836 0.0077823 -1.88635e-22)
(-0.0815314 0.00491418 7.60351e-22)
(-0.0586292 0.00263725 -7.25985e-22)
(-0.0387338 0.00113712 0)
(-0.0214911 0.000350832 0)
(-0.00670552 7.2671e-05 -5.51069e-24)
(-0.00847153 -0.0349614 1.17263e-22)
(-0.00666027 -0.0496554 3.43935e-24)
(-0.00303003 -0.0604423 3.97971e-22)
(-0.00125888 -0.0475215 -1.49542e-22)
(0.00233729 -0.0310197 0)
(-0.00870156 -0.0195641 8.91212e-22)
(-0.0631879 0.00407484 8.29351e-22)
(-0.0413862 0.00256238 -8.57572e-22)
(-0.0227464 0.000905859 0)
(-0.00699982 0.000157614 -7.76894e-24)
(-0.00478648 -0.0145811 -2.36328e-22)
(-0.00417681 -0.0253987 -9.16832e-23)
(-0.00272726 -0.033202 1.89022e-22)
(-0.00064323 -0.0341953 -1.29333e-22)
(0.000182236 -0.014352 4.94298e-23)
(-0.00445012 -0.00527285 0)
(-0.00268969 0.00319207 -1.02388e-21)
(-0.0504344 0.00117141 0)
(-0.0176538 0.000392158 -2.71528e-23)
(-0.00151433 0.000761172 0)
(-0.00236852 -0.00359859 -2.40567e-22)
(-0.00233529 -0.0102012 -4.59312e-22)
(-0.00171676 -0.0168066 -6.2493e-23)
(-0.000723651 -0.0185769 1.27162e-22)
(7.63992e-05 -0.0106364 -4.96201e-23)
(-0.00107115 -0.000879275 2.08783e-21)
(-0.00129798 0.0015448 2.17867e-21)
(-0.00309399 0.00367474 7.0193e-23)
(-0.000134639 0.0019453 -4.81415e-22)
(-0.000745493 0.00101147 -9.74542e-25)
(-0.00111229 -0.00226151 1.24591e-22)
(-0.000954317 -0.00651645 3.72018e-22)
(-0.000482708 -0.00932048 7.62231e-24)
(-6.56498e-05 -0.0058236 -2.27931e-23)
(-0.00014532 -0.00253506 -1.87185e-24)
(-0.000448965 -0.00139063 -1.74669e-21)
(-0.000543959 0.000678372 -5.26823e-22)
(-0.00135519 0.00156918 0)
(-0.00318337 0.00910043 1.51668e-21)
(0.000381205 0.00148045 -2.58742e-22)
(-5.97299e-06 0.00172908 2.56503e-22)
(-0.000312938 0.00102986 1.28433e-22)
(-0.00043787 -0.00127436 0)
(-0.000270974 -0.0034954 -1.21931e-22)
(-6.45952e-05 -0.00292437 1.71284e-23)
(0.000227432 -0.00278027 8.27377e-22)
(1.35701e-05 -0.00238483 3.33723e-22)
(-0.000160348 -0.00144512 1.9667e-22)
(-0.000172564 0.000193934 5.35921e-23)
(-0.000333309 0.000541706 -6.1445e-23)
(-0.000458151 0.00210757 1.092e-21)
(0.000304641 0.00052514 1.08133e-21)
(0.000243786 0.00124594 -4.04747e-22)
(2.84527e-05 0.00140557 -2.63975e-22)
(-0.000106612 0.000863336 -1.28486e-22)
(-0.000115251 -0.000589541 0)
(-3.95102e-05 -0.00105907 -1.12751e-23)
(0.000520603 -0.00202585 0)
(0.000183271 -0.00236945 -2.8628e-22)
(4.71426e-05 -0.00198308 -9.86407e-22)
(-3.71e-05 -0.00120204 3.21445e-22)
(-2.19119e-05 -2.7512e-05 -3.58139e-22)
(-1.23748e-05 1.12227e-05 9.65379e-24)
(0.000522674 0.000188413 -4.69783e-22)
(0.000168643 0.000392294 7.16181e-22)
(0.000137112 0.000963489 -6.9296e-22)
(2.68746e-05 0.00101752 1.32346e-22)
(-1.71909e-05 0.000571945 0)
(-1.0953e-05 -0.000143918 1.11484e-23)
(0.000383362 -0.000688221 0)
(0.000312563 -0.00167044 5.50339e-22)
(0.000113974 -0.0018492 7.16391e-22)
(3.7672e-05 -0.00144804 9.3959e-22)
(8.30517e-06 -0.000783754 -3.33752e-22)
(9.76436e-06 -5.45965e-05 -2.20432e-23)
(0.00118191 0.000271878 -5.60801e-22)
(0.000372197 0.000102528 0)
(8.23603e-05 0.000269099 5.14312e-22)
(6.38317e-05 0.000667241 0)
(1.65641e-05 0.000604051 0)
(6.16709e-06 0.000207627 0)
(0.000708064 -0.000230751 6.27152e-22)
(0.000207027 -0.000517188 -5.69242e-22)
(0.000166667 -0.00126879 -5.60001e-22)
(5.77558e-05 -0.00129092 -4.18049e-22)
(2.37313e-05 -0.000861956 -4.34719e-22)
(1.31336e-05 -0.000276875 1.31199e-23)
(0.00165256 0.000143115 0)
(0.000943197 0.000156163 1.40551e-22)
(0.000245957 5.06364e-05 0)
(3.18451e-05 0.000164901 1.9898e-27)
(2.1658e-05 0.000378962 0)
(8.59572e-06 0.00019347 -8.98009e-23)
(0.0017992 -2.53577e-05 0)
(0.0015374 -0.000252875 -5.66028e-22)
(0.000514903 -0.000129751 -1.57977e-22)
(9.80891e-05 -0.000355412 2.91838e-22)
(7.47225e-05 -0.000864925 -4.14945e-22)
(2.43308e-05 -0.000740251 -1.31455e-22)
(1.22177e-05 -0.000277474 9.15602e-23)
(0.00132746 8.09424e-05 -1.88758e-23)
(0.000702519 8.09469e-05 -2.10197e-22)
(0.000147169 1.96987e-05 0)
(6.24221e-06 8.19291e-05 -1.08207e-22)
(5.46359e-06 0.000110879 9.05901e-23)
(0.00144344 -1.72548e-05 2.09884e-24)
(0.0012266 -0.000148878 6.35672e-22)
(0.000347905 -6.49896e-05 -4.72726e-27)
(3.72882e-05 -0.000218461 1.34144e-25)
(2.43296e-05 -0.000483694 -2.65264e-22)
(9.42543e-06 -0.000223959 8.36285e-23)
(0.00099874 4.18358e-05 1.48566e-22)
(0.000474653 3.57319e-05 1.0254e-22)
(7.24672e-05 3.80745e-06 -1.2614e-22)
(-1.18446e-06 1.89204e-05 2.30045e-23)
(0.00108589 -1.03054e-05 2.09432e-24)
(0.000916286 -7.97349e-05 -1.406e-22)
(0.000213189 -2.57458e-05 4.54142e-22)
(7.15055e-06 -0.000109119 -2.12758e-22)
(5.95693e-06 -0.0001372 3.39004e-26)
(0.000683411 1.86605e-05 0)
(0.000266729 1.17878e-05 1.13805e-22)
(1.71701e-05 -1.07264e-06 7.96654e-23)
(0.000743529 -5.59629e-06 0)
(0.000621643 -3.64329e-05 -2.05688e-22)
(0.000107676 -5.27905e-06 3.95889e-22)
(-1.42723e-06 -2.53188e-05 4.39579e-23)
(0.000391214 6.4044e-06 -9.7094e-25)
(8.13033e-05 2.79479e-06 -1.43007e-22)
(0.000426133 -2.73031e-06 9.69678e-25)
(0.000351095 -1.27567e-05 -1.14027e-22)
(2.64574e-05 1.15639e-06 1.12928e-22)
(0.000126722 1.63287e-06 4.33788e-23)
(0.000138306 -1.21686e-06 0)
(0.000107875 -3.5464e-06 -1.09961e-23)
(-0.142806 0.304014 2.22389e-21)
(-0.0269626 0.258912 5.09898e-22)
(-0.0419202 0.12829 0)
(-0.075393 0.189521 2.78641e-21)
(-0.062912 0.194201 -2.94455e-21)
(-0.0730259 0.268225 0)
(-0.0373519 0.311073 0)
(-0.0980482 0.353169 -1.02572e-21)
(-0.0849392 0.314158 0)
(-0.0388469 0.266556 -1.8853e-21)
(0.152144 0.126685 4.23761e-21)
(-0.095513 0.278808 0)
(-0.0338078 0.0636942 -3.65734e-22)
(-0.0560659 0.105238 0)
(-0.0162071 0.0192679 -3.81852e-21)
(-0.0385957 0.0469815 3.90765e-21)
(-0.0831558 0.12169 -2.27051e-21)
(-0.114783 0.159372 0)
(-0.0953974 0.203452 0)
(-0.1191 0.240194 6.18395e-22)
(-0.108796 0.295478 0)
(-0.097515 0.289507 1.9587e-21)
(-0.0153147 0.194437 2.36968e-21)
(0.094644 0.155471 -5.71818e-21)
(0.302751 0.0911919 1.12336e-21)
(-0.149956 0.235199 -5.90055e-22)
(-0.140565 0.2524 0)
(-0.0215724 0.0120697 -3.15915e-21)
(-0.0491868 0.0286484 8.65425e-22)
(-0.0607743 0.052149 7.20437e-22)
(-0.0913663 0.081852 2.30861e-21)
(-0.121511 0.0806397 -4.44559e-21)
(-0.167463 0.115401 -3.93368e-21)
(-0.159391 0.156874 -3.00672e-21)
(-0.184476 0.185399 5.63179e-21)
(-0.130978 0.208654 -1.64177e-21)
(-0.060065 0.184006 -1.71404e-21)
(0.0431983 0.128393 0)
(0.387355 0.0503679 -5.74664e-21)
(0.190271 0.106379 0)
(0.423693 0.029748 0)
(0.243505 0.0592447 4.83663e-21)
(-0.206795 0.172741 0)
(-0.178883 0.17973 0)
(-0.0109142 -0.277319 6.03744e-21)
(-0.146157 -0.330303 0)
(0.386264 -0.0834517 0)
(0.436245 0.0147691 -1.97029e-22)
(0.273254 0.0340668 0)
(0.269123 -0.0943492 0)
(0.456133 -0.0376026 1.18335e-21)
(0.457994 0.00175881 3.69664e-21)
(0.296101 0.00848818 0)
(0.319517 -0.0442043 0)
(0.473406 -0.0152591 0)
(0.324563 -0.014932 -3.75346e-21)
(-0.063952 0.0225429 1.14969e-21)
(-0.0973992 0.0360047 -1.44557e-21)
(-0.120491 0.0485648 4.75531e-21)
(-0.173439 0.0547473 0)
(-0.202229 0.0850233 0)
(-0.23159 0.0953414 -3.10521e-21)
(-0.249517 0.119913 -2.36327e-21)
(-0.152405 0.139017 0)
(0.067275 0.0802879 3.34725e-21)
(-0.0354375 0.117881 0)
(0.151588 0.043432 0)
(0.00453608 0.068032 -3.61982e-21)
(-0.266952 0.106161 7.84813e-21)
(-0.228703 0.113067 -2.31907e-21)
(-0.0113632 -0.264135 -3.40733e-21)
(0.172163 -0.137661 7.67092e-21)
(0.146958 -0.156893 -6.00264e-21)
(-0.114912 -0.386872 1.70481e-21)
(-0.0773037 -0.328883 -3.7107e-21)
(-0.0362404 -0.360204 2.43759e-22)
(0.0474396 -0.183595 -6.36456e-21)
(0.0507632 -0.153765 2.08629e-21)
(0.149282 -0.110027 3.22753e-21)
(0.13348 0.00995653 0)
(0.0254493 0.03795 0)
(0.0859864 -0.0942142 -3.55699e-21)
(0.188934 -0.0572104 0)
(0.100504 -0.0462678 -3.31656e-21)
(0.199958 -0.0211208 3.02447e-21)
(0.0609741 -0.00985587 4.60985e-21)
(-0.0972694 0.0161435 1.65322e-21)
(-0.141043 0.0248312 0)
(-0.168127 0.0342798 0)
(-0.213439 0.0400238 3.28407e-21)
(-0.244957 0.0587104 0)
(-0.274083 0.0597166 8.26378e-21)
(-0.294301 0.0757439 -7.06223e-21)
(-0.108584 0.0540344 0)
(-0.132238 0.0687815 -5.67702e-21)
(-0.222785 0.0871225 1.15639e-20)
(-0.195345 0.0398112 0)
(-0.292406 0.0749771 -7.47431e-21)
(-0.305956 0.0688604 -3.98677e-21)
(-0.0859198 -0.314816 0)
(-0.0708274 -0.248326 7.72783e-21)
(-0.071972 -0.243463 0)
(-0.0640335 -0.322785 -5.27599e-22)
(-0.0901115 -0.325726 4.14372e-22)
(-0.102471 -0.242127 -7.93664e-21)
(-0.0607273 -0.188299 -7.2913e-21)
(-0.0907698 -0.162427 9.69575e-21)
(-0.03766 -0.116 2.99024e-21)
(-0.104125 -0.0833375 -3.91769e-21)
(-0.0505909 -0.0527453 0)
(-0.0777201 -0.017971 -3.18654e-21)
(-0.172448 0.0107143 0)
(-0.123395 0.0131584 0)
(-0.167652 0.0197658 -1.28133e-21)
(-0.197937 0.0255857 -5.02084e-21)
(-0.232287 0.0319152 4.30587e-21)
(-0.26098 0.0425537 -1.53238e-21)
(-0.279383 0.0446763 -1.96697e-21)
(-0.307189 0.0565336 6.22833e-21)
(-0.277573 0.0465721 -6.94748e-21)
(-0.300928 0.0616067 8.4707e-21)
(-0.264074 0.0153399 0)
(-0.298614 0.0394629 -1.19036e-21)
(-0.320828 0.0615411 0)
(-0.313988 0.0562697 0)
(-0.0467879 -0.173955 -1.23699e-20)
(-0.0894853 -0.248615 4.26697e-21)
(-0.109959 -0.258556 5.15523e-21)
(-0.121921 -0.288251 -7.10503e-22)
(-0.137969 -0.258928 6.5548e-22)
(-0.172443 -0.209621 -7.46657e-21)
(-0.175239 -0.170263 0)
(-0.195866 -0.112749 -9.33053e-21)
(-0.280943 0.0176888 -4.39208e-21)
(-0.237601 -0.0818422 6.78817e-21)
(-0.273954 -0.0184926 2.80153e-21)
(-0.13537 0.0115527 4.5187e-21)
(-0.29424 0.0527881 2.6978e-21)
(-0.173294 0.0178633 -3.22833e-21)
(-0.198711 0.023204 -2.79501e-21)
(-0.225993 0.0311721 -6.05341e-21)
(-0.261159 0.0395755 1.35453e-21)
(-0.2705 0.0437469 -3.43243e-21)
(-0.293867 0.0457228 -2.69941e-21)
(-0.317828 0.0604243 6.72864e-22)
(-0.312889 0.0512205 1.23278e-21)
(-0.274342 0.0588245 4.81728e-21)
(-0.290689 0.0565688 1.9968e-21)
(-0.301475 0.0641816 -1.27938e-21)
(-0.293634 0.0608369 -1.91883e-21)
(-0.241887 0.064263 -6.67725e-21)
(-0.0389074 -0.104778 0)
(-0.062477 -0.165575 8.27783e-21)
(-0.182582 0.0658248 0)
(-0.220933 0.0552845 4.37749e-21)
(-0.120388 0.0612738 8.47676e-21)
(-0.14613 0.0579117 -5.59741e-21)
(-0.0860061 -0.18097 0)
(-0.125183 -0.220817 -4.90059e-21)
(-0.162325 -0.198174 1.50025e-20)
(-0.21894 0.0284295 -5.83718e-21)
(-0.245102 0.00862001 4.62051e-21)
(-0.179482 -0.156885 -1.06995e-20)
(-0.23035 -0.0767718 1.13794e-22)
(-0.222082 -0.0474215 -9.42611e-21)
(-0.135571 0.0117281 0)
(-0.265785 0.0525622 0)
(-0.244775 0.0394292 2.5972e-22)
(-0.250323 0.0461452 -3.54483e-22)
(-0.168967 0.0200284 -5.02384e-21)
(-0.196989 0.0262377 5.34281e-21)
(-0.215354 0.0313168 4.63519e-21)
(-0.28432 0.0698212 1.83099e-21)
(-0.276352 0.0693973 -4.16936e-22)
(-0.24686 0.0770756 3.63341e-21)
(-0.227709 0.0761297 1.32586e-21)
(-0.258741 0.0570291 -5.47652e-21)
(-0.264314 0.0715778 2.00015e-23)
(-0.271092 0.0635723 4.67614e-21)
(-0.200916 0.0817623 2.29947e-21)
(-0.176033 0.0800888 -7.50228e-21)
(-0.119485 0.0728927 2.88277e-21)
(-0.14465 0.0802912 2.38149e-21)
(-0.0953992 0.070628 -3.36771e-21)
(-0.0573541 0.0522253 0)
(-0.0756728 0.0587345 2.79804e-21)
(-0.0915463 0.0545192 -2.40018e-22)
(-0.083112 0.0468393 0)
(-0.0248626 -0.0545242 -4.19662e-21)
(-0.0489767 -0.0946938 4.10591e-21)
(-0.0593809 -0.102233 2.88727e-21)
(-0.0949856 -0.137852 0)
(-0.107312 0.0316103 1.02037e-20)
(-0.140692 0.0340624 0)
(-0.168425 0.0187767 5.66233e-21)
(-0.121104 -0.11609 1.30639e-22)
(-0.152216 -0.0267392 1.53359e-21)
(-0.151229 -0.123939 -4.21957e-21)
(-0.179629 -0.0559663 8.46605e-21)
(-0.0138911 -0.0250781 -4.96234e-22)
(-0.0254731 -0.0429172 0)
(-0.125807 0.0107385 0)
(-0.0849332 0.00381903 -5.1472e-22)
(-0.102701 0.00500139 5.18868e-22)
(-0.223386 0.0439965 -3.00882e-21)
(-0.234022 0.0540352 2.64575e-21)
(-0.149819 0.0165384 0)
(-0.184584 0.0255323 -2.4568e-21)
(-0.200767 0.0350148 2.95936e-21)
(-0.198723 0.0860829 1.24119e-21)
(-0.238768 0.0764191 -2.01789e-21)
(-0.232247 0.0813943 -2.56059e-21)
(-0.218272 0.0599836 -3.40957e-21)
(-0.218592 0.0713589 6.76096e-22)
(-0.1759 0.0839698 0)
(-0.147689 0.0840585 0)
(-0.134203 0.0824839 0)
(-0.10676 0.0790722 -2.97532e-21)
(-0.0872095 0.0724975 -1.67556e-21)
(-0.0672173 0.0658962 3.9891e-21)
(-0.0503465 0.0540207 0)
(-0.00777351 0.0144679 0)
(-0.00497762 0.00957025 -6.67726e-22)
(-0.0142078 0.0258731 3.59673e-21)
(-0.0227714 0.0349061 -3.15295e-21)
(-0.036213 0.0469528 0)
(-0.0257584 0.03277 -5.85591e-21)
(-0.0392131 0.0401445 3.74087e-23)
(-0.0106994 0.0153729 0)
(-0.0146273 0.0200963 -4.59914e-21)
(-0.0049039 0.00585422 0)
(-0.0414878 0.0353273 1.34796e-23)
(-0.0594963 0.039958 2.04828e-23)
(-0.0586629 0.0303158 3.55562e-21)
(-0.0921097 0.0258468 -4.32536e-21)
(-0.0362352 -0.0477516 8.8132e-21)
(-0.0602531 -0.0667093 -1.85489e-20)
(-0.0879351 -0.0669301 3.95128e-21)
(-0.0874054 0.00898904 -2.27996e-21)
(-0.0962585 -0.0377956 8.37704e-21)
(-0.116778 -0.0225083 -5.88545e-21)
(-0.0068618 -0.00708975 0)
(-0.0130121 -0.0154222 0)
(-0.0161102 -0.0167206 -3.64664e-21)
(-0.0321654 -0.0282206 -5.33388e-21)
(-0.00419578 0.00677595 5.65025e-22)
(-0.117579 0.0103689 1.2542e-21)
(-0.0696512 0.000811321 0)
(-0.0873368 0.00280377 -1.09733e-21)
(-0.146397 0.0291949 1.49121e-21)
(-0.173195 0.0373984 -4.4592e-21)
(-0.18892 0.0548505 -8.09002e-23)
(-0.161934 0.0676193 4.0494e-21)
(-0.181135 0.0758436 -4.75294e-21)
(-0.168646 0.0812054 3.2335e-21)
(-0.0987845 0.078848 -3.93031e-21)
(-0.128142 0.0778792 6.07475e-23)
(-0.12557 0.0825319 1.11151e-21)
(-0.0370066 0.0529349 4.0451e-21)
(-0.0564388 0.0642824 -4.40592e-23)
(-0.0783827 0.0715446 1.95859e-21)
(-0.0111198 0.0272462 1.76705e-21)
(-0.0272629 0.0447152 -2.14058e-21)
(-0.00628889 0.0176831 -1.58826e-21)
(-0.0164832 0.0184703 5.2344e-21)
(-0.0260762 0.0238983 0)
(-0.00500574 0.0049833 4.11204e-21)
(-0.00735006 0.00749646 -7.26736e-21)
(-0.00221083 0.00035634 0)
(-0.00221154 0.000285566 0)
(-0.00447842 -0.00219213 -1.15542e-21)
(-0.0266365 0.0193606 5.24184e-21)
(-0.0411266 0.0216841 -1.57412e-23)
(-0.0410458 0.0142064 -1.07814e-20)
(-0.0629441 0.00755847 1.08835e-20)
(-0.0387615 -0.0178659 3.80782e-21)
(-0.0540664 -0.0177231 -3.09018e-21)
(-0.04768 -0.00259081 -3.80798e-21)
(-0.00650786 -0.00309881 7.17185e-22)
(-0.0130199 -0.00713178 2.0333e-21)
(-0.0213209 -0.00661208 1.40879e-21)
(-0.00505438 0.0133923 -3.0521e-21)
(-0.0291753 0.049391 0)
(-0.0614658 0.0637456 0)
(-0.0929301 0.0359213 3.9472e-21)
(-0.108566 0.0552014 -2.76841e-21)
(-0.100804 0.0669781 0)
(-0.0222111 0.00259321 3.06349e-23)
(-0.0624841 0.014772 0)
(-0.00999275 0.0308488 -1.03625e-22)
(-0.000830203 0.00170477 -6.08659e-22)
(-0.000220873 0.0019988 2.99371e-21)
(-0.00923212 0.00687818 7.49892e-21)
(-0.0146186 0.0105564 0)
(-0.00153094 -0.000749069 -3.39835e-21)
(-0.00341893 0.000669505 -1.07869e-20)
(-0.00048545 -0.0022564 5.95547e-21)
(-0.00139609 0.00141595 4.21846e-22)
(-0.0053491 -0.000721546 0)
(-0.0157958 0.00598847 0)
(-0.0256158 0.00783767 0)
(-0.0280984 0.000505346 0)
(-0.00741142 -0.000620409 4.81287e-21)
(-0.0161936 -0.00292441 -4.11247e-21)
(-0.0184576 0.000578591 0)
(-0.00131648 0.00990246 0)
(-0.000423315 0.00161234 2.72243e-21)
(0.000566492 0.00163294 -6.82877e-21)
(0.00063406 0.00190865 1.18866e-20)
(0.000613667 0.00173408 -7.1838e-21)
(0.000856406 0.00120071 -2.33871e-21)
(0.000459527 0.000623274 0)
(-0.00311798 -3.99253e-05 3.51848e-21)
(-0.00664734 0.00133347 0)
(0.000153096 -0.00287568 0)
(-0.000225454 -0.00237809 0)
(0.00022195 -0.00297101 -1.29467e-21)
(-0.000793022 0.00105746 2.23577e-21)
(-0.00308339 0.000797883 0)
(-0.00239111 0.000432016 6.76824e-21)
(-0.00460782 0.000716314 1.79014e-21)
(-0.00595406 0.00148951 -6.75049e-21)
(0.00112846 0.00142395 0)
(0.000739013 0.00126585 5.27899e-21)
(0.00121432 0.00104589 8.56193e-21)
(0.00145402 0.00121976 -9.71137e-21)
(0.000660963 0.000338452 -1.74312e-22)
(0.0011944 0.000641372 7.23261e-21)
(0.00076276 -0.00226091 1.45291e-21)
(0.000185043 -0.00127714 -1.0895e-21)
(0.000738467 -0.00225749 -8.36578e-21)
(0.000938182 -0.00263691 1.14312e-20)
(0.00117639 -0.0024887 0)
(0.00128889 0.000932083 -5.35785e-21)
(0.000498419 0.000826948 -7.84259e-21)
(0.0016707 5.38079e-06 1.16276e-20)
(0.00154586 -0.000986754 0)
(0.0010551 -0.00145236 0)
(0.000574526 -0.000806603 4.46005e-21)
(0.00192401 0.000823244 3.35724e-21)
(0.00204451 0.000779595 -5.95476e-21)
(0.00141477 0.000448447 -1.30427e-22)
(0.0018678 0.000585094 1.77967e-24)
(0.00155245 -0.00131697 0)
(0.00191376 -0.00159669 1.95041e-21)
(0.00215864 -0.00107396 -1.68496e-21)
(0.00249966 0.000268713 -4.13959e-24)
(0.00241027 -0.000535265 7.99825e-22)
(0.0024191 -0.000113472 6.32217e-21)
(0.000868807 -0.00038426 -5.91198e-21)
(0.00157792 -0.000745822 0)
(0.00197795 0.00024645 -8.83087e-21)
(0.0023979 0.000197066 4.21026e-21)
(0.00216212 -3.42979e-05 4.4835e-21)
(0.0018637 -0.00042745 0)
(0.00226829 -0.000446253 -4.91207e-21)
)
;

boundaryField
{
    movingWall
    {
        type            fixedValue;
        value           uniform (1 0 0);
    }
    fixedWalls
    {
        type            noSlip;
    }
    frontAndBack
    {
        type            empty;
    }
    defaultFaces
    {
        type            empty;
    }
}


// ************************************************************************* //
