/*--------------------------------*- C++ -*----------------------------------*\
  =========                 |
  \\      /  F ield         | OpenFOAM: The Open Source CFD Toolbox
   \\    /   O peration     | Website:  https://openfoam.org
    \\  /    A nd           | Version:  8
     \\/     M anipulation  |
\*---------------------------------------------------------------------------*/
FoamFile
{
    version     2.0;
    format      ascii;
    class       surfaceScalarField;
    location    "0.043";
    object      phi;
}
// * * * * * * * * * * * * * * * * * * * * * * * * * * * * * * * * * * * * * //

dimensions      [0 3 -1 0 0 0 0];

internalField   nonuniform List<scalar> 
1107
(
0.000315988
-0.000643387
0.000633495
-0.000306096
0.000616968
-0.000300981
-2.96854e-05
0.000646654
0.000304965
0.000538556
-0.000106656
-0.000736865
-0.000968713
0.000630291
-9.76474e-05
0.000701457
0.000286064
-5.36031e-05
-1.49165e-05
-3.72676e-05
0.000683921
-3.30542e-05
1.43478e-05
-8.79497e-05
0.000180754
-0.000148832
-6.49765e-05
0.000300275
-0.000856386
-0.00126767
0.000599233
-0.000207439
0.000740083
0.000760942
-9.67525e-05
4.16997e-05
0.000814856
-9.56139e-05
3.58098e-06
-4.28363e-05
-1.13355e-05
0.000725621
0.000852975
2.99114e-05
-6.80308e-05
6.44743e-05
-0.000126753
-8.65526e-05
2.51493e-05
-4.86247e-05
0.000227388
-0.00014075
-0.000213392
0.000277848
-0.000115436
0.000296555
-0.000875093
-0.00151057
0.000539458
-0.000366437
0.000758231
0.000828708
-0.000185378
0.000899107
-0.000166013
5.21568e-06
-2.29027e-05
-6.11986e-06
-2.22535e-05
0.000864926
1.03031e-05
0.000755532
0.000945973
-0.000114897
0.00096321
-3.94901e-05
0.000951572
-2.39098e-05
3.55471e-05
3.54007e-05
-7.27474e-05
-4.92059e-05
1.36207e-05
-2.68448e-05
-8.23978e-05
-0.0001311
0.000322149
-0.000215152
-0.000320388
0.000397164
-0.000190452
0.000306683
-0.000784612
0.000459834
-0.00166373
-0.000570236
0.000743257
0.000880754
-0.000307901
0.000968219
-0.000253478
2.9977e-06
-1.22797e-05
-3.12217e-06
8.81137e-05
0.000916643
-5.31839e-05
0.000853338
-1.23217e-05
0.000765835
0.00102575
-0.000172426
0.00105
-6.37437e-05
0.00103913
4.642e-05
0.000998964
0.00012828
-0.000118397
0.000932473
0.000184888
5.74471e-05
-0.000104193
-3.56519e-05
2.76025e-05
-1.93613e-05
1.04134e-05
-9.65562e-06
-0.000129759
-0.000216493
-6.19179e-05
-0.000172034
0.000691067
-0.000801469
0.000902111
-0.000466754
0.00101052
-0.000361892
2.2081e-06
-4.07439e-06
-9.14066e-07
0.000865462
-6.72165e-05
0.00082382
-2.36666e-05
0.000753514
0.000822636
-0.000147279
0.000257116
0.00107899
-0.00024089
0.00110991
-9.46621e-05
0.00110153
5.47946e-05
0.0010575
0.000172314
0.000973906
0.000268481
4.56502e-05
-3.06115e-05
-7.69565e-05
2.44418e-05
-1.44435e-05
1.14687e-05
-6.3883e-06
4.27984e-06
-2.46675e-06
0.000876919
-0.000652606
0.00100467
-0.000489645
8.82718e-07
-6.77277e-07
-3.13447e-08
0.000333944
0.000669899
-0.000181208
0.000790493
-7.23104e-05
0.000785529
-2.89256e-05
0.000729847
0.000826848
0.000404174
0.000622461
0.000538331
0.000388195
-0.00129493
0.0015292
0.00108354
-0.000319756
0.00112313
-0.000134257
0.00112185
5.60794e-05
0.00107654
0.000217623
0.000974262
0.000370756
-3.58681e-05
-5.57916e-05
6.10481e-05
-1.92686e-05
-3.1043e-05
-9.09348e-06
-1.65634e-05
-3.38065e-06
-8.17957e-06
-6.70812e-07
-3.38712e-06
-7.02152e-07
0.000988245
0.000345194
-0.000945245
0.000371464
-0.000996495
0.000687992
-7.8707e-05
0.000739051
-2.58325e-05
0.000700921
0.00079283
0.000585606
0.000547176
0.000783985
0.000411679
0.00166469
0.000482982
0.000916942
-5.78334e-05
-9.53737e-05
9.74155e-05
-3.13078e-05
-5.75685e-05
-1.47767e-05
-3.30945e-05
-5.47021e-06
-1.74861e-05
-1.09518e-06
-7.76215e-06
-1.79733e-06
0.000101842
0.000300272
-5.69192e-05
0.00022765
-0.000801431
0.00035779
-0.000666293
0.000680854
-2.05097e-05
0.000675089
0.000415267
0.000169557
-4.45214e-05
-0.000125207
7.43548e-05
-2.44742e-05
-7.76157e-05
-1.17772e-05
-4.57915e-05
-4.48061e-06
-2.47827e-05
-9.71537e-07
-1.12712e-05
-2.76887e-06
0.000246775
0.000202445
-0.000148948
0.000201105
-3.0374e-05
0.000136174
-0.000579814
0.000342989
-0.000328428
0.000654579
0.000296903
0.000365138
-1.46499e-05
-0.000134
2.34424e-05
-8.30587e-06
-8.39597e-05
-4.11224e-06
-4.99851e-05
-1.65043e-06
-2.72445e-05
-4.0306e-07
-1.25186e-05
-3.17193e-06
0.000150061
0.000135959
-8.35746e-05
0.000128783
-7.66255e-05
0.000120866
-1.50666e-05
6.99833e-05
-0.000306809
0.000326151
0.000201094
0.00024587
1.40669e-05
-0.000122299
-2.5768e-05
7.15099e-06
-7.70438e-05
3.18786e-06
-4.6022e-05
1.12517e-06
-2.51818e-05
1.81171e-07
-1.15746e-05
-2.99076e-06
0.000129666
7.85065e-05
-7.2214e-05
8.56674e-05
-4.04593e-05
7.40263e-05
-2.97856e-05
5.92955e-05
-4.37884e-06
1.93422e-05
0.000119358
0.000211402
-8.88522e-05
5.96612e-05
0.000148549
1.62729e-05
-3.58286e-05
-0.000102743
7.60707e-06
-6.8378e-05
3.2534e-06
-4.16683e-05
1.17391e-06
-2.31023e-05
2.2609e-07
-1.06268e-05
-2.76468e-06
3.82973e-05
-4.86431e-05
4.83889e-05
-3.49355e-05
4.88804e-05
-1.53134e-05
3.53506e-05
-5.84064e-06
1.49634e-05
-5.19255e-05
2.3933e-05
8.76537e-05
-3.17575e-05
5.74669e-05
-6.73777e-05
-1.25094e-05
-4.23504e-05
-2.80483e-06
-2.03314e-05
-5.56951e-06
1.44841e-05
-2.81123e-05
2.30104e-05
-2.32646e-05
2.71118e-05
-1.31669e-05
2.31203e-05
-3.08312e-06
9.12275e-06
5.02632e-06
-2.56135e-05
4.45201e-05
-2.08972e-06
6.98975e-06
7.21177e-06
-1.21118e-05
-1.29251e-05
5.57978e-05
-6.32041e-05
-1.84946e-05
-1.78527e-06
-8.17374e-06
1.49853e-05
2.40413e-06
-1.35336e-05
8.20359e-06
-1.33055e-05
1.25893e-05
-8.74211e-06
1.26644e-05
-2.71099e-06
6.03963e-06
1.49577e-06
4.30911e-06
-7.8946e-06
-5.14524e-07
3.42843e-06
4.07584e-06
-1.87935e-06
8.41499e-06
-1.67327e-05
1.01971e-05
-2.97959e-06
-3.85956e-07
1.58028e-06
-1.69351e-06
-4.0761e-06
9.47111e-07
-6.27711e-06
4.23974e-06
-4.95588e-06
5.76445e-06
-1.84218e-06
3.32864e-06
3.40366e-06
1.66697e-06
-3.57487e-06
1.62636e-06
2.16822e-06
1.04795e-07
1.44428e-06
-7.49864e-07
3.02464e-06
6.14022e-06
-2.66408e-06
4.7819e-06
-2.37378e-05
2.162e-05
-2.09895e-06
2.08863e-06
-2.96927e-06
-2.15724e-06
7.77906e-08
-1.35277e-06
-1.77623e-06
2.66845e-07
-2.30422e-06
1.84373e-06
-1.03516e-06
1.48646e-06
3.73723e-06
-3.34042e-07
4.7079e-10
2.59145e-06
7.01878e-07
1.30509e-06
9.67914e-07
2.33759e-07
4.60662e-07
-2.00299e-07
5.60858e-07
-5.78553e-07
5.36045e-06
-1.17544e-06
1.68425e-06
-2.60777e-06
-1.36017e-06
1.29156e-06
-1.43164e-06
1.56666e-07
-9.02878e-07
-6.06504e-07
1.71625e-08
-4.77655e-07
4.51302e-07
2.63154e-06
-2.21647e-06
3.32217e-06
2.58601e-06
-3.28617e-07
1.75589e-06
2.51078e-07
8.63471e-07
3.38208e-07
1.78247e-07
8.21169e-08
-1.76936e-08
-1.63027e-06
-9.18334e-07
1.37317e-06
-6.41705e-07
9.65797e-07
-8.16494e-07
6.76408e-07
-8.45799e-07
9.95854e-08
-4.78659e-07
-1.10683e-07
-2.63531e-08
1.46234e-06
-1.98031e-06
3.1495e-06
1.68084e-06
-1.3113e-06
1.64098e-06
-2.13699e-07
1.04982e-06
6.47278e-08
4.52685e-07
6.37766e-08
6.44214e-08
-2.38397e-06
-1.34614e-06
2.09983e-06
-1.01291e-06
-5.47129e-07
-3.27843e-07
4.77142e-07
-4.42026e-07
2.72634e-07
-4.10615e-07
3.15408e-08
-1.37034e-07
2.092e-06
1.23676e-06
-1.86641e-06
8.15064e-07
-1.11451e-06
9.91634e-07
-6.61956e-07
9.34955e-07
-9.88225e-08
5.12221e-07
5.18835e-09
1.28202e-07
-2.83351e-06
-7.28949e-07
1.17849e-06
-1.57842e-06
-7.80627e-07
-5.91421e-07
-2.83554e-07
-1.48884e-07
1.84e-07
-1.98358e-07
6.03805e-08
-1.05492e-07
-2.74149e-06
1.76321e-07
-2.68337e-07
1.24621e-06
-1.89571e-06
1.31369e-06
7.38148e-07
4.2195e-07
-5.4482e-07
5.30851e-07
-2.57852e-07
4.39411e-07
-2.60047e-08
1.33389e-07
-1.89345e-06
-4.13924e-07
-9.80307e-07
-3.91742e-07
-3.15901e-07
-1.16536e-07
-5.24239e-08
3.80669e-08
-4.51117e-08
-1.82435e-06
1.07231e-07
7.35569e-07
7.77043e-07
3.83057e-07
1.94801e-07
-2.08771e-07
2.36276e-07
-5.47186e-08
1.07386e-07
-1.18839e-06
-2.05845e-07
-5.53415e-07
-1.54229e-07
-1.4195e-07
-2.70088e-08
-7.04599e-09
-1.13818e-06
5.70257e-08
3.74432e-07
4.20413e-07
1.57447e-07
7.02382e-08
-4.27348e-08
5.26682e-08
-6.7748e-07
-8.17792e-08
-2.61568e-07
-3.46112e-08
-3.40551e-08
-6.45314e-07
2.48595e-08
1.49532e-07
1.91068e-07
3.66196e-08
9.93171e-09
-3.24204e-07
-1.91424e-08
-6.8666e-08
-3.06271e-07
6.92666e-09
3.43289e-08
4.65516e-08
-8.78073e-08
-8.08804e-08
0.000597148
-0.00138176
-0.00106658
0.000323301
-0.000539794
0.000860563
-0.000537262
0.000540175
0.00130416
-0.000763989
0.00111371
-0.000268047
0.00156987
-0.00183792
0.000503297
-0.000298172
-0.00139453
0.000630539
0.000139394
-0.000311428
-0.0004004
4.44317e-05
-0.000121388
-0.000266996
0.000331555
-0.000731956
0.00117671
-0.00084515
0.000639444
-0.000755084
0.00207346
-0.00144292
0.000235537
0.00130908
-0.00107355
0.00101091
0.000358306
0.00101844
-0.00177352
-0.000424481
-6.03401e-05
0.000230248
-0.000290588
-3.67477e-05
-0.000768703
-6.75834e-05
-0.00070112
0.00137264
-0.00144023
0.000527494
-0.00124603
0.00142655
-0.00185103
0.000353002
0.000886023
-0.000533022
-0.00124433
0.000754684
-0.00137719
0.00105743
-0.000622505
0.000987457
-0.00223349
-0.000863573
0.000860721
0.000803973
0.00177766
-0.000412042
0.000997648
-0.00149081
0.00135655
-0.000433377
-0.00115999
0.000747952
-0.000789237
-0.00132194
0.00137802
3.46146e-05
-0.00129069
0.000501452
-0.00107307
0.000304951
-0.000193173
0.000132575
-0.000325748
-0.000568545
0.000280392
-0.000848937
-0.00115983
0.000200657
-0.00136049
-0.00203283
0.0011399
-0.00200347
-0.000606878
-1.56269e-05
-0.000663024
0.000229647
-0.000678651
-2.80966e-05
-0.00200473
-0.00203157
-0.000899823
0.0017038
-0.000115837
0.000881811
0.00028304
0.00149462
0.00198684
0.00166418
-2.35098e-05
0.000905321
-0.00101187
0.000988356
-0.000263915
-0.000580103
0.000614718
-0.000350456
-0.000965626
0.000701712
-0.000464174
-0.000792789
0.000328615
-0.000487838
0.00012688
-0.000251393
8.08378e-05
-0.000332231
-0.000768099
3.41599e-05
-0.000802259
-0.00132633
-0.00035212
-0.000974212
-0.00235685
0.000889155
-0.00123961
0.000210504
-0.00182107
-0.00143018
0.000190573
0.000922178
-0.00274324
-0.00143467
0.000541983
0.00144485
0.0014473
-0.00100686
0.001372
0.000657316
0.00210217
0.000103308
0.001344
0.00109166
4.99235e-05
0.00104174
0.000751635
0.000226055
0.00052558
0.00055467
0.00068155
-0.000748634
-0.000308789
9.65956e-06
-0.000318448
-0.000792599
-0.000349567
-0.000443032
-0.00132378
-0.000425199
-0.00089858
-0.00185987
0.00201585
-0.00182528
-0.000727392
0.00173363
-0.00248226
-9.16523e-05
0.00128753
-0.00201493
-0.00057234
-0.000614665
0.000860535
0.000757338
-0.0012078
0.00196514
0.000894365
0.00223836
0.00141142
0.00082694
0.00245316
0.00297874
-0.000633495
0.00205508
-0.00142158
0.00311576
-0.000137013
-0.000344216
0.000564212
-0.00113655
-9.41959e-05
-0.00025002
-0.000537228
-0.00011938
-0.000417848
-0.00101796
-0.000453749
0.00181867
0.000236407
-0.00172702
-0.000287907
-0.000729247
0.000965655
-0.00097453
-0.000162022
0.000647188
-0.000935095
-0.000327342
-0.0011735
0.000444256
-0.000323342
0.000534743
0.000537193
2.69383e-05
-0.000602051
0.000575112
-0.00114656
-0.000122417
0.000347248
-0.00022483
-0.000724468
-0.000697994
0.00123519
0.00126715
0.00209409
-0.000341565
-0.000805
-0.00176315
0.00121574
0.000878344
0.00107873
-0.000684417
-0.000285849
0.00039398
-0.000556001
-0.000674616
0.000220867
-0.000280636
-0.00012574
-0.000160109
-0.000543588
-0.000322721
-0.00125633
0.000321233
-0.000290673
-0.000605785
0.000315112
-0.00016153
-0.000501751
-5.42505e-05
0.000829093
-0.00050786
-0.000672956
0.000511426
-9.7843e-05
0.000366765
-1.95178e-05
0.000268922
-0.00021817
0.000198652
1.70123e-05
0.000143737
-0.000160749
-0.000201158
-0.000425988
-0.000257564
-0.000168424
-0.000112109
0.000260658
0.000422635
-0.000147432
0.000570067
0.00108775
0.000315058
-0.000572622
-0.00040941
-0.00121441
0.000469377
0.000618378
-0.000663304
-0.000551106
0.00134772
-2.15608e-05
0.000109214
0.000239097
0.000113654
-0.000273763
-1.09112e-05
-0.000464767
0.000184131
-0.000519017
-0.000100825
-0.000172938
-0.000423546
-0.000239415
0.000481154
3.02718e-05
-0.000796266
0.000288406
-0.000529933
1.09156e-05
-0.000241527
-0.00029906
0.000329332
-0.00034466
4.55994e-05
-7.57372e-05
-0.000237315
0.000161577
-3.86624e-05
-0.000131153
9.24902e-05
1.25839e-05
5.44513e-06
2.42245e-05
-2.96696e-05
1.26569e-05
-2.38784e-05
4.81029e-05
6.93277e-05
-9.32061e-05
8.19116e-05
-4.65644e-05
-4.66417e-05
-0.000207313
-2.40109e-05
-5.65876e-06
-7.06525e-05
-1.77706e-05
-0.000101461
-0.000105852
-0.000269885
-0.000103316
-0.000166569
-0.000675938
-9.35258e-05
0.000332623
0.000476541
0.00109492
-0.000440451
-0.000235488
0.000991557
0.000103362
1.82629e-05
2.62572e-05
0.000127477
4.58711e-05
8.16063e-05
0.000378494
5.39303e-05
-0.000226869
1.34474e-05
-7.3191e-05
-0.000153678
-0.000312606
-0.00030169
-0.000234024
-6.76659e-05
-0.000475551
-0.000146219
0.000190842
-2.92646e-05
-0.000236441
9.0222e-05
5.30893e-05
2.88223e-05
0.00014558
0.000116315
4.07024e-05
7.40047e-06
6.95247e-05
1.75976e-05
-4.86407e-05
-2.20119e-05
-0.000154493
-2.27523e-05
4.98175e-06
-4.47642e-05
-2.91283e-06
1.48356e-05
1.49712e-07
4.10928e-05
-0.000102163
-5.23298e-05
-0.000268732
-0.000147128
-0.000121604
-0.000382615
0.000339103
3.93913e-05
0.000442465
5.98496e-05
8.84441e-06
3.22484e-05
9.04507e-05
0.000129842
9.65052e-05
-2.69804e-05
0.00021282
-0.000235376
8.16987e-05
-0.000303042
-1.84946e-05
-5.36045e-06
-7.82625e-06
7.97596e-06
-6.24596e-06
-4.00585e-05
-4.70564e-06
-9.23884e-05
-1.24972e-05
9.58437e-06
-1.72028e-05
6.00949e-06
1.09278e-05
-2.95183e-06
4.31762e-05
-7.39585e-05
-1.84299e-05
-0.000195563
-0.000135713
3.27339e-05
1.04423e-05
0.000162576
2.68625e-05
-8.0004e-06
5.04854e-06
4.90268e-06
-7.87195e-06
-1.34328e-06
-9.34369e-06
-7.42002e-07
-7.12996e-06
-3.34976e-06
-2.98924e-05
1.26896e-05
-4.83223e-05
-1.80566e-06
7.81515e-06
1.08839e-05
7.81563e-06
1.27977e-05
-7.74914e-06
2.324e-05
3.05156e-05
-7.27564e-06
-5.73782e-05
9.05585e-06
-3.47254e-07
-8.99644e-06
-8.0964e-06
-2.42244e-06
-4.70751e-06
-1.14189e-05
-1.9766e-06
-6.68411e-06
2.5703e-06
8.31365e-06
1.16261e-05
-4.11156e-06
7.43373e-06
3.70407e-06
1.20177e-05
-2.17027e-06
-5.92613e-06
-9.44592e-06
-1.06167e-05
1.17077e-06
1.00947e-06
8.02046e-07
6.63169e-06
3.95157e-06
-7.79615e-06
-3.62274e-06
-1.37223e-05
-4.58428e-06
-8.20701e-06
5.10831e-07
6.12086e-06
1.25285e-05
1.3538e-05
-1.24125e-05
-1.30981e-06
1.12417e-05
2.29631e-06
2.08518e-06
8.20603e-06
-7.02852e-06
-8.33832e-06
-8.60664e-06
6.31033e-06
)
;

boundaryField
{
    movingWall
    {
        type            calculated;
        value           uniform 0;
    }
    fixedWalls
    {
        type            calculated;
        value           uniform 0;
    }
    frontAndBack
    {
        type            empty;
        value           nonuniform List<scalar> 0();
    }
    defaultFaces
    {
        type            empty;
        value           nonuniform List<scalar> 0();
    }
}


// ************************************************************************* //
