/*--------------------------------*- C++ -*----------------------------------*\
  =========                 |
  \\      /  F ield         | OpenFOAM: The Open Source CFD Toolbox
   \\    /   O peration     | Website:  https://openfoam.org
    \\  /    A nd           | Version:  8
     \\/     M anipulation  |
\*---------------------------------------------------------------------------*/
FoamFile
{
    version     2.0;
    format      ascii;
    class       surfaceScalarField;
    location    "0.067";
    object      phi;
}
// * * * * * * * * * * * * * * * * * * * * * * * * * * * * * * * * * * * * * //

dimensions      [0 3 -1 0 0 0 0];

internalField   nonuniform List<scalar> 
1107
(
0.000315988
-0.000643388
0.000633494
-0.000306094
0.000616968
-0.00030098
-2.96871e-05
0.000646655
0.000304962
0.000538556
-0.000106654
-0.000736864
-0.000968718
0.000630292
-9.76566e-05
0.000701464
0.000286064
-5.36019e-05
-1.49162e-05
-3.72722e-05
0.000683927
-3.3051e-05
1.43467e-05
-8.79498e-05
0.000180752
-0.000148834
-6.49692e-05
0.000300272
-0.000856385
-0.00126768
0.000599238
-0.000207465
0.000740101
0.000760967
-9.67752e-05
4.17075e-05
0.00081491
-9.56508e-05
3.58078e-06
-4.2836e-05
-1.13354e-05
0.000725635
0.000853066
2.99213e-05
-6.80768e-05
6.44731e-05
-0.000126751
-8.65559e-05
2.51488e-05
-4.86256e-05
0.000227395
-0.000140759
-0.000213387
0.000277848
-0.000115422
0.000296552
-0.000875089
-0.00151061
0.000539474
-0.000366497
0.00075827
0.000828765
-0.00018544
0.000899226
-0.000166112
5.21559e-06
-2.29027e-05
-6.11979e-06
-2.22912e-05
0.000865046
1.03113e-05
0.000755556
0.000946168
-0.000115019
0.000963467
-3.95904e-05
0.00095185
-2.38982e-05
3.55151e-05
3.54042e-05
-7.27549e-05
-4.92052e-05
1.3622e-05
-2.68434e-05
-8.24004e-05
-0.000131114
0.000322167
-0.000215174
-0.00032038
0.000397172
-0.000190426
0.000306687
-0.000784605
0.000459872
-0.00166379
-0.000570354
0.000743331
0.000880863
-0.000308034
0.000968438
-0.000253687
2.99797e-06
-1.22787e-05
-3.12182e-06
8.81582e-05
0.000916894
-5.32016e-05
0.000853467
-1.23194e-05
0.000765867
0.0010261
-0.000172682
0.00105047
-6.3955e-05
0.00103963
4.63508e-05
0.000999421
0.000128369
-0.000118504
0.000932817
0.000185108
5.74528e-05
-0.000104206
-3.56477e-05
2.76048e-05
-1.93572e-05
1.04141e-05
-9.6527e-06
-0.000129771
-0.000216517
-6.19174e-05
-0.000172059
0.000691199
-0.000801682
0.000902302
-0.000467005
0.00101089
-0.000362278
2.2082e-06
-4.0728e-06
-9.13622e-07
0.000865647
-6.72579e-05
0.000823936
-2.36707e-05
0.000753548
0.000822851
-0.000147397
0.000257363
0.00107957
-0.000241362
0.00111067
-9.50513e-05
0.00110236
5.46643e-05
0.00105826
0.000172468
0.00097449
0.000268874
4.56515e-05
-3.06067e-05
-7.69621e-05
2.44414e-05
-1.44376e-05
1.14681e-05
-6.38383e-06
4.27938e-06
-2.46401e-06
0.000877231
-0.000653036
0.00100525
-0.000490299
8.82574e-07
-6.75993e-07
-3.10481e-08
0.000334134
0.000670013
-0.000181296
0.000790605
-7.2355e-05
0.000785613
-2.89348e-05
0.000729877
0.000827227
0.000404626
0.000622673
0.000538688
0.000388294
-0.00129506
0.00152944
0.00108444
-0.000320552
0.0011243
-0.000134913
0.00112312
5.58518e-05
0.00107772
0.000217868
0.000975192
0.000371399
-3.58715e-05
-5.57975e-05
6.10623e-05
-1.92681e-05
-3.1041e-05
-9.09233e-06
-1.65596e-05
-3.3799e-06
-8.17643e-06
-6.70599e-07
-3.3853e-06
-7.01647e-07
0.00098801
0.000345401
-0.000945117
0.000371509
-0.000996557
0.000688048
-7.87388e-05
0.0007391
-2.58422e-05
0.000700942
0.000793458
0.00058636
0.000547551
0.000784595
0.000411887
0.0016651
0.000483348
0.000916549
-5.78819e-05
-9.54247e-05
9.7509e-05
-3.13308e-05
-5.7592e-05
-1.47863e-05
-3.31042e-05
-5.47329e-06
-1.74894e-05
-1.09569e-06
-7.7629e-06
-1.79734e-06
0.000101463
0.000300649
-5.67111e-05
0.000227762
-0.00080137
0.000357808
-0.000666316
0.000680877
-2.05159e-05
0.0006751
0.000415881
0.000168929
-4.46214e-05
-0.000125337
7.45341e-05
-2.45256e-05
-7.76879e-05
-1.18004e-05
-4.58293e-05
-4.48886e-06
-2.48009e-05
-9.73126e-07
-1.12786e-05
-2.77046e-06
0.000246485
0.000202952
-0.000148788
0.000201326
-3.02746e-05
0.000136229
-0.000579791
0.000342994
-0.000328433
0.000654584
0.000297706
0.00036466
-1.47559e-05
-0.000134209
2.36274e-05
-8.36191e-06
-8.40818e-05
-4.13823e-06
-5.0053e-05
-1.65998e-06
-2.72792e-05
-4.05021e-07
-1.25336e-05
-3.17548e-06
0.00015002
0.000136479
-8.35475e-05
0.000129086
-7.65482e-05
0.000120985
-1.503e-05
7.00067e-05
-0.000306804
0.000326151
0.000201904
0.000245821
1.39972e-05
-0.000122554
-2.56523e-05
7.11284e-06
-7.71974e-05
3.16952e-06
-4.61097e-05
1.11824e-06
-2.52279e-05
1.79663e-07
-1.1595e-05
-2.99582e-06
0.000129927
7.89055e-05
-7.23535e-05
8.59827e-05
-4.04439e-05
7.41921e-05
-2.97558e-05
5.93481e-05
-4.37141e-06
1.93471e-05
0.00011998
0.000211851
-8.92767e-05
5.99907e-05
0.000149266
1.62212e-05
-3.57613e-05
-0.000103014
7.57776e-06
-6.85539e-05
3.23932e-06
-4.17712e-05
1.16891e-06
-2.31575e-05
2.2506e-07
-1.06512e-05
-2.77076e-06
3.85023e-05
-4.88735e-05
4.86301e-05
-3.50009e-05
4.90549e-05
-1.53067e-05
3.54265e-05
-5.83414e-06
1.49757e-05
-5.22975e-05
2.40044e-05
8.82838e-05
-3.18836e-05
5.77033e-05
-6.75909e-05
-1.25576e-05
-4.24836e-05
-2.81514e-06
-2.03936e-05
-5.58591e-06
1.45182e-05
-2.83133e-05
2.31306e-05
-2.33741e-05
2.72449e-05
-1.31909e-05
2.3201e-05
-3.08117e-06
9.14156e-06
4.93371e-06
-2.5836e-05
4.49067e-05
-2.07426e-06
7.06886e-06
7.25239e-06
-1.2247e-05
-1.2978e-05
5.60334e-05
-6.34489e-05
-1.85639e-05
-1.92879e-06
-8.22746e-06
1.509e-05
2.3329e-06
-1.36507e-05
8.21793e-06
-1.34006e-05
1.26538e-05
-8.78305e-06
1.27258e-05
-2.71576e-06
6.06039e-06
1.56561e-06
4.38068e-06
-8.02055e-06
-4.98004e-07
3.46873e-06
4.09812e-06
-1.88839e-06
8.4776e-06
-1.68556e-05
1.02664e-05
-3.10229e-06
-3.36324e-07
1.50982e-06
-1.79251e-06
-4.10204e-06
8.97862e-07
-6.33067e-06
4.24465e-06
-4.99137e-06
5.79356e-06
-1.85076e-06
3.34463e-06
3.50828e-06
1.70589e-06
-3.64857e-06
1.67695e-06
2.20571e-06
1.18068e-07
1.46227e-06
-7.53e-07
3.04746e-06
6.18311e-06
-2.68286e-06
4.81329e-06
-2.3887e-05
2.17565e-05
-2.17421e-06
2.17114e-06
-3.09922e-06
-2.23754e-06
1.08718e-07
-1.41653e-06
-1.78764e-06
2.36812e-07
-2.32283e-06
1.8448e-06
-1.04261e-06
1.49387e-06
3.84609e-06
-3.3907e-07
1.25578e-09
2.66202e-06
7.20806e-07
1.33849e-06
9.85282e-07
2.42377e-07
4.66887e-07
-2.00798e-07
5.65394e-07
-5.82995e-07
5.39625e-06
-1.21402e-06
1.7409e-06
-2.70109e-06
-1.40504e-06
1.33866e-06
-1.48071e-06
1.72897e-07
-9.39693e-07
-6.11134e-07
3.88946e-09
-4.81914e-07
4.51261e-07
2.70617e-06
-2.27608e-06
3.416e-06
2.65639e-06
-3.33444e-07
1.80017e-06
2.59122e-07
8.83158e-07
3.44501e-07
1.82767e-07
8.33216e-08
-1.76006e-08
-1.6866e-06
-9.51483e-07
1.42406e-06
-6.60831e-07
9.96703e-07
-8.41668e-07
6.99616e-07
-8.73018e-07
1.06224e-07
-4.96252e-07
-1.10991e-07
-3.06524e-08
1.50248e-06
-2.03434e-06
3.23804e-06
1.72568e-06
-1.34539e-06
1.68358e-06
-2.16855e-07
1.07494e-06
6.73364e-08
4.62244e-07
6.50237e-08
6.57209e-08
-2.46958e-06
-1.39561e-06
2.17859e-06
-1.04602e-06
-5.66282e-07
-3.36795e-07
4.91833e-07
-4.54911e-07
2.8151e-07
-4.23139e-07
3.31121e-08
-1.41644e-07
2.15486e-06
1.27657e-06
-1.92896e-06
8.35558e-07
-1.14423e-06
1.01693e-06
-6.78735e-07
9.58383e-07
-1.00297e-07
5.23988e-07
5.59245e-09
1.30744e-07
-2.93393e-06
-7.52688e-07
1.21705e-06
-1.63289e-06
-8.0873e-07
-6.09895e-07
-2.9318e-07
-1.52561e-07
1.89484e-07
-2.03857e-07
6.22291e-08
-1.08531e-07
-2.83291e-06
1.90998e-07
-2.92024e-07
1.29512e-06
-1.97317e-06
1.35117e-06
7.60954e-07
4.31781e-07
-5.59077e-07
5.43909e-07
-2.64261e-07
4.50104e-07
-2.64132e-08
1.36337e-07
-1.95828e-06
-4.27291e-07
-1.01304e-06
-4.05583e-07
-3.25373e-07
-1.20367e-07
-5.35347e-08
3.91629e-08
-4.63018e-08
-1.88285e-06
1.15563e-07
7.63438e-07
7.98276e-07
3.94457e-07
1.98967e-07
-2.14136e-07
2.4189e-07
-5.6048e-08
1.09924e-07
-1.2279e-06
-2.12434e-07
-5.71375e-07
-1.59581e-07
-1.46041e-07
-2.78597e-08
-7.13831e-09
-1.17351e-06
6.11722e-08
3.88207e-07
4.31463e-07
1.61959e-07
7.15627e-08
-4.38098e-08
5.38755e-08
-6.99437e-07
-8.43724e-08
-2.6984e-07
-3.57811e-08
-3.49979e-08
-6.64783e-07
2.65181e-08
1.54888e-07
1.95902e-07
3.76188e-08
1.00653e-08
-3.34471e-07
-1.97417e-08
-7.0779e-08
-3.15277e-07
7.32452e-09
3.55122e-08
4.76841e-08
-9.05207e-08
-8.31963e-08
0.000597178
-0.00138178
-0.00106661
0.000323401
-0.000539918
0.000860693
-0.000537291
0.000540312
0.00130424
-0.000763926
0.00111381
-0.000267971
0.00157007
-0.00183804
0.000503455
-0.000298226
-0.0013949
0.000630979
0.000139435
-0.000311494
-0.000400484
4.4427e-05
-0.000121389
-0.000267066
0.000331848
-0.000732331
0.00117716
-0.00084531
0.000639866
-0.000755038
0.00207404
-0.00144306
0.000235999
0.00130966
-0.00107367
0.00101144
0.000358402
0.00101924
-0.00177428
-0.000423818
-6.03269e-05
0.000230336
-0.000290662
-3.6731e-05
-0.000769062
-6.7387e-05
-0.000701675
0.00137392
-0.0014413
0.000528606
-0.00124567
0.00142811
-0.00185192
0.00035444
0.000887015
-0.000532575
-0.00124542
0.000755118
-0.00137913
0.00105857
-0.000624009
0.000990018
-0.00223569
-0.000861905
0.000861432
0.000803671
0.00177798
-0.000412909
0.000999269
-0.001494
0.00135909
-0.00043543
-0.00116227
0.00074936
-0.00079087
-0.00132517
0.00138102
3.39206e-05
-0.00129346
0.000502591
-0.00107559
0.00030543
-0.000193153
0.000132837
-0.00032599
-0.000568839
0.00028123
-0.000850069
-0.00116007
0.000202638
-0.00136271
-0.00203305
0.00114352
-0.00200543
-0.000610947
-1.30613e-05
-0.000667156
0.000231725
-0.000680217
-2.46352e-05
-0.00200842
-0.00203006
-0.000901634
0.00170531
-0.000117039
0.00088223
0.000281951
0.00149603
0.00198726
0.00166496
-2.66221e-05
0.000908852
-0.00101676
0.000990138
-0.0002674
-0.000586831
0.000620752
-0.000355106
-0.000971267
0.000703867
-0.000468677
-0.000797811
0.000329134
-0.00049238
0.000128372
-0.000251456
8.12026e-05
-0.000332659
-0.000768866
3.49464e-05
-0.000803812
-0.00132776
-0.000350944
-0.00097682
-0.00235936
0.000884855
-0.00123996
0.000204638
-0.00182542
-0.00142603
0.000186066
0.000920334
-0.00274576
-0.00143903
0.000538873
0.00144838
0.00144773
-0.00100906
0.00137372
0.000655898
0.00210428
9.89971e-05
0.00134873
0.00108914
4.4254e-05
0.00104488
0.000748121
0.000218124
0.000529997
0.000547258
0.000675629
-0.000750398
-0.000309031
1.00347e-05
-0.000319066
-0.000793778
-0.000349443
-0.000444335
-0.00132626
-0.000424828
-0.000901434
-0.00186386
0.00201399
-0.00182792
-0.00073177
0.00173283
-0.00248323
-9.509e-05
0.00128855
-0.00202032
-0.000575309
-0.000617056
0.000862878
0.000756666
-0.00121288
0.00196954
0.000891403
0.00224013
0.00140636
0.000833769
0.00245124
0.00298124
-0.000632583
0.00205914
-0.00142656
0.00311581
-0.000134574
-0.000344718
0.000565017
-0.00114033
-9.4026e-05
-0.000250692
-0.000538361
-0.000119153
-0.000419209
-0.00102059
-0.00045557
0.00182422
0.000234919
-0.00172913
-0.000291182
-0.000733224
0.000968142
-0.000977182
-0.000163144
0.000647987
-0.000939169
-0.000329195
-0.00117875
0.000445531
-0.000325269
0.000537121
0.000537608
2.79854e-05
-0.000605659
0.000577674
-0.00115077
-0.00012276
0.000349176
-0.000226416
-0.000728419
-0.00070286
0.00124047
0.00126668
0.00210045
-0.000341456
-0.000809313
-0.00176802
0.00121697
0.000883483
0.0010824
-0.000685619
-0.000286453
0.000394843
-0.000557987
-0.000676681
0.000221111
-0.000281838
-0.000125808
-0.000160645
-0.000545017
-0.000323906
-0.00126083
0.000321665
-0.000292692
-0.000608539
0.000315848
-0.000163008
-0.00050299
-5.49974e-05
0.000832186
-0.00051052
-0.000676563
0.000513555
-9.88898e-05
0.000369
-1.98239e-05
0.00027011
-0.000219568
0.000199744
1.71979e-05
0.000144638
-0.000161835
-0.00020237
-0.000428786
-0.000259229
-0.000169557
-0.000112966
0.000262233
0.000424154
-0.000149197
0.000573351
0.00109127
0.000317263
-0.000576492
-0.000411156
-0.00122047
0.000468808
0.000622464
-0.000666671
-0.000553798
0.00135229
-2.15512e-05
0.000109835
0.000240681
0.000113864
-0.000274509
-1.08506e-05
-0.000466274
0.000184437
-0.000521272
-0.000100943
-0.000173567
-0.000424849
-0.000240412
0.000483697
2.98581e-05
-0.000799545
0.000289024
-0.000531928
1.06566e-05
-0.000242904
-0.000300842
0.0003307
-0.000346473
4.56311e-05
-7.63626e-05
-0.000238752
0.000162389
-3.90077e-05
-0.000132004
9.29964e-05
1.26335e-05
5.50514e-06
2.43754e-05
-2.98805e-05
1.27575e-05
-2.40447e-05
4.84201e-05
6.97946e-05
-9.38394e-05
8.24281e-05
-4.69276e-05
-4.69118e-05
-0.000208763
-2.42531e-05
-5.62745e-06
-7.11649e-05
-1.78745e-05
-0.000102275
-0.000106488
-0.000271832
-0.000104174
-0.000167658
-0.000680666
-9.42328e-05
0.000334914
0.000479119
0.00110158
-0.000443601
-0.000237065
0.000997399
0.000104184
1.87115e-05
2.61951e-05
0.000128547
4.65736e-05
8.19729e-05
0.000381488
5.40411e-05
-0.000227608
1.35498e-05
-7.32792e-05
-0.000154329
-0.000313691
-0.000303035
-0.000234902
-6.81329e-05
-0.000477806
-0.000147106
0.000191959
-2.95695e-05
-0.00023759
9.04839e-05
5.34659e-05
2.89622e-05
0.000146462
0.000116893
4.09826e-05
7.43745e-06
6.99448e-05
1.77039e-05
-4.91377e-05
-2.20272e-05
-0.000155626
-2.30881e-05
5.21359e-06
-4.51153e-05
-2.80698e-06
1.52301e-05
-1.40104e-07
4.14252e-05
-0.000103267
-5.23589e-05
-0.000270925
-0.00014867
-0.000122255
-0.000385735
0.000342161
3.93272e-05
0.000446344
6.06095e-05
9.43564e-06
3.19896e-05
9.14086e-05
0.000130736
9.70975e-05
-2.71528e-05
0.00021399
-0.000236341
8.20128e-05
-0.000304474
-1.85639e-05
-5.39626e-06
-8.06022e-06
7.92012e-06
-6.55038e-06
-4.07803e-05
-4.33495e-06
-9.31392e-05
-1.27152e-05
9.90822e-06
-1.70502e-05
6.25963e-06
1.14446e-05
-3.52451e-06
4.34342e-05
-7.52526e-05
-1.78866e-05
-0.000197508
-0.000136898
3.34583e-05
9.97594e-06
0.000164194
2.72955e-05
-8.40743e-06
4.88293e-06
5.08563e-06
-8.18484e-06
-1.46475e-06
-9.87218e-06
-7.66995e-07
-7.41784e-06
-3.46807e-06
-3.03517e-05
1.33015e-05
-4.82383e-05
-1.81138e-06
8.07101e-06
1.14901e-05
8.07224e-06
1.31406e-05
-8.25771e-06
2.31166e-05
3.05032e-05
-7.38665e-06
-5.77988e-05
9.56048e-06
-4.492e-07
-9.42298e-06
-8.70691e-06
-2.51906e-06
-4.89878e-06
-1.1942e-05
-2.044e-06
-6.94277e-06
2.82889e-06
8.66125e-06
1.23894e-05
-4.25101e-06
7.667e-06
3.82124e-06
1.24825e-05
-2.56978e-06
-6.13713e-06
-9.95643e-06
-1.12599e-05
1.30346e-06
1.12949e-06
8.29643e-07
6.83735e-06
4.06767e-06
-8.18007e-06
-3.76195e-06
-1.43172e-05
-4.76418e-06
-8.52613e-06
4.99576e-07
6.33777e-06
1.29821e-05
1.41115e-05
-1.29855e-05
-1.33167e-06
1.16821e-05
2.42948e-06
2.1387e-06
8.47647e-06
-7.30908e-06
-8.64075e-06
-8.93278e-06
6.50329e-06
)
;

boundaryField
{
    movingWall
    {
        type            calculated;
        value           uniform 0;
    }
    fixedWalls
    {
        type            calculated;
        value           uniform 0;
    }
    frontAndBack
    {
        type            empty;
        value           nonuniform List<scalar> 0();
    }
    defaultFaces
    {
        type            empty;
        value           nonuniform List<scalar> 0();
    }
}


// ************************************************************************* //
