/*--------------------------------*- C++ -*----------------------------------*\
  =========                 |
  \\      /  F ield         | OpenFOAM: The Open Source CFD Toolbox
   \\    /   O peration     | Website:  https://openfoam.org
    \\  /    A nd           | Version:  8
     \\/     M anipulation  |
\*---------------------------------------------------------------------------*/
FoamFile
{
    version     2.0;
    format      ascii;
    class       volScalarField;
    location    "0.041";
    object      p;
}
// * * * * * * * * * * * * * * * * * * * * * * * * * * * * * * * * * * * * * //

dimensions      [0 2 -2 0 0 0 0];

internalField   nonuniform List<scalar> 
656
(
9.77047e-07
-0.235411
1.72844
-0.786652
0.189106
1.73108
-1.15102
-1.5528
2.05464
1.70658
1.76624
-0.438481
0.386122
1.74757
2.03417
2.25879
1.63675
1.58748
2.26804
2.39108
1.80239
1.82146
1.78668
1.81809
-0.0677592
0.616172
1.77424
2.01694
2.25007
1.84409
1.8669
2.55671
2.396
2.38611
2.55447
2.69044
2.15692
2.17302
2.13761
1.78252
1.85352
0.280547
0.818508
1.80931
2.00662
2.24305
2.18725
2.1998
2.86117
2.69124
2.55893
2.3819
2.55212
2.6892
2.86166
3.02857
2.16197
2.17635
2.18791
2.12077
2.1463
1.82897
2.00051
2.23578
2.19818
2.20701
3.02743
2.85927
2.69171
3.34605
2.37736
2.54923
2.68686
2.86054
3.0284
2.18332
2.19339
2.19522
2.19474
1.98938
2.22545
2.19403
2.19349
3.61311
3.34177
3.02367
2.8569
3.34655
3.5631
4.81732
2.36914
2.5468
2.6829
2.86078
3.0297
2.09389
2.08935
2.09068
2.09284
2.09472
2.09608
5.39504
5.07826
3.65428
3.32959
3.01836
3.35265
3.5284
4.58655
5.00441
2.11887
2.10263
2.09431
2.08797
2.08183
2.07639
3.46406
5.8337
5.30449
3.68564
3.31295
3.39832
2.13938
2.12705
2.1159
2.10664
2.09846
2.09128
3.53807
3.5493
6.25274
5.51834
3.70307
3.53261
2.2276
2.21299
2.20045
2.19012
2.18103
2.17313
3.18969
3.54091
3.65148
6.69755
5.77387
3.19352
2.32769
2.31523
2.30321
2.29294
2.28408
2.27662
3.12316
3.18787
3.53842
3.76319
7.19337
3.13392
3.07537
2.40933
2.41
2.40385
2.39261
2.38108
2.37137
3.06684
3.11319
3.18587
3.52854
3.85138
3.07055
2.47316
2.50276
2.49619
2.47943
3.06565
3.0581
3.10394
3.18172
3.51426
3.07108
3.18698
2.32083
2.30897
3.08451
3.06847
3.05975
3.0507
3.09403
3.17564
3.15693
3.19139
3.2138
3.09277
3.08371
3.06519
3.0549
3.04372
3.08455
3.13624
3.15857
3.1959
3.215
3.3373
3.09785
3.09251
3.0826
3.06285
3.05063
3.03742
3.12325
3.13625
3.1592
3.19898
3.22714
3.38404
3.10034
3.09819
3.09268
3.08212
3.06099
3.04691
3.11555
3.12277
3.13586
3.15905
3.20081
3.2379
3.09855
3.10057
3.0986
3.09295
3.0819
3.05942
3.11125
3.11483
3.12204
3.13513
3.15864
3.20168
3.10084
3.09827
3.10074
3.09903
3.09335
3.08176
3.11383
3.11088
3.11408
3.12128
3.13433
3.15825
3.10329
3.10057
3.09817
3.10084
3.09946
3.09371
3.1072
3.11006
3.11414
3.11059
3.11341
3.12053
3.13369
3.10315
3.10029
3.09813
3.10091
3.09987
3.10729
3.11042
3.11427
3.11043
3.11282
3.11993
3.10301
3.10004
3.09812
3.10097
3.10737
3.11075
3.11433
3.11033
3.11227
3.10288
3.09981
3.0981
3.10744
3.11105
3.11436
3.11024
3.10277
3.0996
3.10751
3.11132
3.11439
3.10266
3.10756
3.11157
0.611935
0.921003
2.1213
2.05064
1.8303
1.80127
1.83273
1.36916
1.47459
1.26352
1.8087
1.85025
2.14531
2.14415
2.16602
2.16211
2.10626
2.08083
2.01352
1.95904
1.74493
1.56632
1.91245
1.8432
1.99317
1.99112
1.88192
2.10678
2.1086
2.1416
2.15677
2.16386
2.12686
2.08177
2.09246
2.00135
1.94352
2.13241
2.22574
2.1142
2.36209
2.27288
2.13685
2.07607
4.47012
4.70447
3.3274
2.55018
2.45657
3.1747
3.02328
2.68332
2.64657
2.96616
2.86632
2.81004
2.14263
2.11471
2.12994
2.17287
2.2261
2.21865
2.20934
2.20985
2.26311
2.16387
2.4512
2.39419
2.28256
2.29847
3.96912
3.53565
3.45081
3.98508
3.79678
3.42567
3.28006
3.3114
3.17005
2.62133
2.52801
3.08399
2.97695
2.88922
2.81598
2.7437
2.14666
2.16527
2.19236
2.2509
2.27705
2.34498
2.36956
2.56669
2.41823
2.3651
2.65383
2.48472
2.42379
3.67003
3.53986
3.48947
3.52755
3.44818
3.37025
3.2285
3.17476
3.0524
2.96144
2.8797
2.74017
2.70132
2.23706
2.253
2.27705
2.36782
2.38629
2.4374
2.47515
2.58862
2.54051
2.80922
2.73368
2.59699
2.54152
3.18446
3.31891
3.32959
3.36018
3.2798
3.20707
3.11537
3.03226
2.89231
2.97848
2.91297
2.33827
2.55272
2.37958
2.39206
2.44061
2.45347
2.51851
2.85281
2.69249
2.73549
2.88309
2.59784
2.70664
2.68081
2.88315
3.12851
3.15336
3.0008
2.96646
3.08494
3.03069
3.19352
3.24045
3.21795
3.00982
2.98421
3.17432
3.02819
3.04272
2.42834
2.6207
2.5369
2.59543
2.47745
2.48037
2.51262
2.74743
2.81556
2.86901
2.92078
2.67924
2.75403
2.70984
2.91821
2.97927
3.03617
3.03217
3.09668
3.14342
3.12376
3.06785
3.06532
3.07281
3.06067
3.08228
3.1279
3.05136
3.0756
3.03785
3.07634
3.07687
3.09142
3.07359
3.06695
3.07168
2.56142
2.45524
2.52648
2.63939
2.65858
2.53325
2.54573
2.63217
2.94439
2.79846
2.83907
2.67822
2.79891
2.98254
2.96401
3.04102
3.06978
3.09646
3.13941
3.14392
3.20144
3.22542
3.22586
3.19638
3.16826
3.18837
3.1422
3.20176
3.1811
3.18432
3.14346
3.11783
3.10709
3.05686
3.09848
3.10072
3.12601
3.09666
3.07093
3.06121
3.0668
3.06376
3.06748
3.09329
3.23706
2.45212
2.33783
2.4196
2.56594
2.59479
2.6715
2.84104
2.82963
2.8682
3.10977
3.00019
3.00858
3.26886
3.16253
3.14029
3.30299
3.27733
3.36543
3.16449
3.13342
3.16453
3.15295
3.15638
3.08099
3.08256
3.13164
3.10766
3.1133
3.08862
3.06229
3.09254
3.09841
3.08732
3.09075
3.10209
3.37662
3.18378
3.06668
3.02373
3.02709
2.98068
2.77932
3.02514
3.31946
3.0913
3.091
3.14539
3.13163
3.1383
3.12796
3.13708
3.09332
3.09129
3.12633
3.11458
3.10201
3.09165
3.10282
3.08911
3.53905
3.09755
3.09747
3.09726
3.0983
3.0993
3.10015
3.12661
3.114
3.12517
3.123
3.12428
3.09804
3.10512
3.10023
3.11295
3.11517
3.09919
3.10169
3.10002
3.10031
3.09927
3.10009
3.11735
3.11439
3.11583
3.11624
3.11582
3.1021
3.10456
3.1079
3.10938
3.11254
3.11145
3.10165
3.10279
3.101
3.10159
3.11204
3.11195
3.11011
3.10509
3.10933
3.10691
3.11305
3.11175
3.10343
3.10492
3.10706
3.10961
3.10922
)
;

boundaryField
{
    movingWall
    {
        type            zeroGradient;
    }
    fixedWalls
    {
        type            zeroGradient;
    }
    frontAndBack
    {
        type            empty;
    }
    defaultFaces
    {
        type            empty;
    }
}


// ************************************************************************* //
