/*--------------------------------*- C++ -*----------------------------------*\
  =========                 |
  \\      /  F ield         | OpenFOAM: The Open Source CFD Toolbox
   \\    /   O peration     | Website:  https://openfoam.org
    \\  /    A nd           | Version:  8
     \\/     M anipulation  |
\*---------------------------------------------------------------------------*/
FoamFile
{
    version     2.0;
    format      ascii;
    class       surfaceScalarField;
    location    "0.041";
    object      phi;
}
// * * * * * * * * * * * * * * * * * * * * * * * * * * * * * * * * * * * * * //

dimensions      [0 3 -1 0 0 0 0];

internalField   nonuniform List<scalar> 
1107
(
0.000315987
-0.000643386
0.000633494
-0.000306096
0.000616968
-0.000300981
-2.96848e-05
0.000646653
0.000304965
0.000538557
-0.000106656
-0.000736866
-0.00096871
0.000630289
-9.76439e-05
0.000701453
0.000286064
-5.36032e-05
-1.49166e-05
-3.72661e-05
0.000683919
-3.30562e-05
1.43486e-05
-8.79485e-05
0.000180753
-0.000148829
-6.49808e-05
0.000300276
-0.000856388
-0.00126766
0.00059923
-0.000207429
0.000740075
0.000760932
-9.67448e-05
4.16972e-05
0.000814837
-9.56023e-05
3.58114e-06
-4.28358e-05
-1.13354e-05
0.000725616
0.000852946
2.99084e-05
-6.80172e-05
6.4475e-05
-0.000126755
-8.6549e-05
2.51496e-05
-4.8623e-05
0.000227382
-0.000140743
-0.000213394
0.000277846
-0.000115444
0.000296554
-0.000875097
-0.00151056
0.00053945
-0.000366415
0.000758215
0.000828687
-0.000185357
0.000899067
-0.000165982
5.21574e-06
-2.2902e-05
-6.1197e-06
-2.22432e-05
0.000864888
1.03009e-05
0.000755525
0.00094591
-0.00011486
0.000963129
-3.94623e-05
0.000951487
-2.39121e-05
3.55537e-05
3.53992e-05
-7.27441e-05
-4.9204e-05
1.36201e-05
-2.6844e-05
-8.23935e-05
-0.000131094
0.000322137
-0.000215139
-0.000320393
0.000397158
-0.000190465
0.000306679
-0.000784617
0.000459816
-0.0016637
-0.000570192
0.000743227
0.000880714
-0.000307856
0.000968145
-0.000253413
2.99757e-06
-1.22795e-05
-3.12213e-06
8.8098e-05
0.000916567
-5.31778e-05
0.000853298
-1.23221e-05
0.000765825
0.00102563
-0.00017235
0.00104986
-6.36848e-05
0.00103898
4.64346e-05
0.000998826
0.000128248
-0.000118364
0.000932371
0.000184819
5.74433e-05
-0.000104186
-3.56513e-05
2.76009e-05
-1.93615e-05
1.04128e-05
-9.65595e-06
-0.00012975
-0.000216483
-6.19148e-05
-0.00017202
0.000691015
-0.000801391
0.000902042
-0.00046667
0.0010104
-0.000361771
2.20799e-06
-4.07463e-06
-9.14145e-07
0.000865407
-6.72037e-05
0.000823786
-2.36652e-05
0.000753503
0.000822573
-0.000147244
0.000257042
0.0010788
-0.00024075
0.00110967
-9.45532e-05
0.00110128
5.48228e-05
0.00105727
0.000172258
0.000973732
0.000268357
4.56475e-05
-3.06112e-05
-7.69511e-05
2.44406e-05
-1.44444e-05
1.14683e-05
-6.38923e-06
4.27974e-06
-2.4674e-06
0.000876807
-0.000652463
0.00100448
-0.00048944
8.82712e-07
-6.77611e-07
-3.14312e-08
0.000333889
0.000669866
-0.000181182
0.00079046
-7.2297e-05
0.000785505
-2.89227e-05
0.000729838
0.000826737
0.000404037
0.000622399
0.000538226
0.000388166
-0.00129489
0.00152913
0.00108325
-0.000319519
0.00112276
-0.000134072
0.00112146
5.61299e-05
0.00107618
0.000217534
0.000973985
0.000370554
-3.58644e-05
-5.57863e-05
6.10395e-05
-1.92673e-05
-3.10416e-05
-9.09313e-06
-1.65634e-05
-3.38062e-06
-8.17991e-06
-6.70825e-07
-3.38741e-06
-7.02248e-07
0.000988312
0.000345135
-0.000945282
0.000371452
-0.000996477
0.000687976
-7.86978e-05
0.000739037
-2.58296e-05
0.000700915
0.000792645
0.000585377
0.000547067
0.000783804
0.000411618
0.00166457
0.000482876
0.000917054
-5.78144e-05
-9.53519e-05
9.73801e-05
-3.12985e-05
-5.75574e-05
-1.47727e-05
-3.30892e-05
-5.46886e-06
-1.74838e-05
-1.09494e-06
-7.76132e-06
-1.79719e-06
0.000101949
0.000300164
-5.69777e-05
0.000227618
-0.000801448
0.000357785
-0.000666287
0.000680847
-2.05079e-05
0.000675086
0.000415091
0.000169735
-4.44881e-05
-0.00012516
7.42958e-05
-2.44569e-05
-7.75886e-05
-1.17693e-05
-4.57768e-05
-4.47779e-06
-2.47753e-05
-9.70984e-07
-1.12681e-05
-2.76817e-06
0.000246853
0.000202302
-0.000148991
0.000201042
-3.04019e-05
0.000136158
-0.000579821
0.000342988
-0.000328427
0.000654578
0.000296676
0.000365268
-1.46177e-05
-0.000133929
2.33867e-05
-8.2888e-06
-8.39176e-05
-4.10428e-06
-4.99613e-05
-1.6475e-06
-2.72321e-05
-4.02449e-07
-1.25132e-05
-3.17062e-06
0.000150066
0.000135815
-8.35789e-05
0.000128698
-7.66464e-05
0.000120833
-1.50769e-05
6.99768e-05
-0.00030681
0.000326151
0.000200868
0.000245874
1.4086e-05
-0.000122215
-2.57993e-05
7.16153e-06
-7.69931e-05
3.19296e-06
-4.59927e-05
1.12711e-06
-2.51663e-05
1.81597e-07
-1.15676e-05
-2.98902e-06
0.000129585
7.84003e-05
-7.21708e-05
8.55808e-05
-4.0462e-05
7.39802e-05
-2.97937e-05
5.92808e-05
-4.38091e-06
1.93409e-05
0.000119191
0.000211262
-8.87284e-05
5.95801e-05
0.000148339
1.62861e-05
-3.58445e-05
-0.000102657
7.61477e-06
-6.83218e-05
3.25718e-06
-4.16351e-05
1.17526e-06
-2.30843e-05
2.2637e-07
-1.06187e-05
-2.76265e-06
3.82479e-05
-4.85759e-05
4.83253e-05
-3.49153e-05
4.88328e-05
-1.53147e-05
3.53295e-05
-5.84241e-06
1.496e-05
-5.18227e-05
2.39243e-05
8.74785e-05
-3.17192e-05
5.73955e-05
-6.73114e-05
-1.24947e-05
-4.23088e-05
-2.80165e-06
-2.03118e-05
-5.5643e-06
1.44822e-05
-2.8057e-05
2.29821e-05
-2.32327e-05
2.7077e-05
-1.31594e-05
2.30983e-05
-3.08354e-06
9.11755e-06
5.06116e-06
-2.55557e-05
4.44188e-05
-2.09924e-06
6.96827e-06
7.20562e-06
-1.20747e-05
-1.29093e-05
5.57281e-05
-6.31306e-05
-1.84736e-05
-1.73725e-06
-8.16133e-06
1.49597e-05
2.42989e-06
-1.35034e-05
8.20449e-06
-1.32794e-05
1.25745e-05
-8.73022e-06
1.26484e-05
-2.7095e-06
6.03401e-06
1.47151e-06
4.29013e-06
-7.86088e-06
-5.22486e-07
3.41757e-06
4.0732e-06
-1.879e-06
8.39963e-06
-1.67023e-05
1.01817e-05
-2.94281e-06
-4.07418e-07
1.61298e-06
-1.66108e-06
-4.07034e-06
9.64472e-07
-6.26341e-06
4.24122e-06
-4.9462e-06
5.75788e-06
-1.83968e-06
3.32451e-06
3.37082e-06
1.65788e-06
-3.55719e-06
1.60928e-06
2.15834e-06
9.90683e-08
1.4395e-06
-7.50233e-07
3.01909e-06
6.13079e-06
-2.66005e-06
4.77384e-06
-2.36988e-05
2.1585e-05
-2.07701e-06
2.06335e-06
-2.92915e-06
-2.13338e-06
6.48963e-08
-1.33206e-06
-1.77381e-06
2.77262e-07
-2.29945e-06
1.84481e-06
-1.03313e-06
1.48483e-06
3.70475e-06
-3.30525e-07
-3.40959e-09
2.56959e-06
6.97591e-07
1.29405e-06
9.63363e-07
2.30261e-07
4.5901e-07
-2.0074e-07
5.59779e-07
-5.77648e-07
5.35149e-06
-1.16443e-06
1.66797e-06
-2.58055e-06
-1.34727e-06
1.27724e-06
-1.4172e-06
1.5004e-07
-8.90979e-07
-6.05568e-07
2.1956e-08
-4.76595e-07
4.51696e-07
2.60992e-06
-2.1982e-06
3.29304e-06
2.56519e-06
-3.26091e-07
1.74233e-06
2.49317e-07
8.57055e-07
3.36572e-07
1.76478e-07
8.17952e-08
-1.78668e-08
-1.61418e-06
-9.08965e-07
1.35872e-06
-6.36307e-07
9.57012e-07
-8.0936e-07
6.69409e-07
-8.3784e-07
9.69031e-08
-4.72971e-07
-1.1064e-07
-2.48984e-08
1.45093e-06
-1.96459e-06
3.12357e-06
1.66796e-06
-1.30096e-06
1.6285e-06
-2.12255e-07
1.04219e-06
6.41829e-08
4.49596e-07
6.34565e-08
6.39283e-08
-2.35947e-06
-1.33214e-06
2.07743e-06
-1.00353e-06
-5.41734e-07
-3.25348e-07
4.73003e-07
-4.38418e-07
2.69989e-07
-4.06981e-07
3.09136e-08
-1.35537e-07
2.07406e-06
1.22551e-06
-1.84864e-06
8.09304e-07
-1.10595e-06
9.84439e-07
-6.56904e-07
9.2814e-07
-9.82019e-08
5.08666e-07
5.115e-09
1.27386e-07
-2.80475e-06
-7.22229e-07
1.16751e-06
-1.56296e-06
-7.72696e-07
-5.86229e-07
-2.8085e-07
-1.47873e-07
1.82461e-07
-1.9683e-07
5.98398e-08
-1.04623e-07
-2.71533e-06
1.72152e-07
-2.61575e-07
1.23235e-06
-1.87362e-06
1.30309e-06
7.31708e-07
4.19227e-07
-5.40741e-07
5.27167e-07
-2.55932e-07
4.36315e-07
-2.58479e-08
1.32501e-07
-1.87503e-06
-4.10151e-07
-9.71076e-07
-3.87848e-07
-3.13258e-07
-1.15463e-07
-5.21258e-08
3.77575e-08
-4.47826e-08
-1.80774e-06
1.04863e-07
7.27692e-07
7.71084e-07
3.79847e-07
1.93668e-07
-2.07244e-07
2.34703e-07
-5.432e-08
1.06654e-07
-1.17723e-06
-2.03991e-07
-5.48377e-07
-1.52727e-07
-1.40816e-07
-2.67715e-08
-7.02449e-09
-1.12822e-06
5.58512e-08
3.70554e-07
4.17333e-07
1.5618e-07
6.98887e-08
-4.24305e-08
5.23333e-08
-6.71317e-07
-8.10506e-08
-2.59258e-07
-3.42835e-08
-3.37952e-08
-6.39857e-07
2.43913e-08
1.48028e-07
1.89728e-07
3.63392e-08
9.90063e-09
-3.21335e-07
-1.89735e-08
-6.80781e-08
-3.03759e-07
6.815e-09
3.39974e-08
4.62394e-08
-8.70512e-08
-8.02367e-08
0.00059713
-0.00138175
-0.00106657
0.000323251
-0.000539734
0.000860502
-0.000537251
0.00054011
0.00130413
-0.000764018
0.00111366
-0.000268084
0.00156979
-0.00183788
0.000503228
-0.000298163
-0.00139438
0.00063036
0.000139371
-0.000311391
-0.000400363
4.44298e-05
-0.000121381
-0.000266961
0.000331439
-0.000731802
0.00117652
-0.000845084
0.000639272
-0.000755106
0.00207323
-0.00144287
0.000235355
0.00130888
-0.00107352
0.00101071
0.000358249
0.00101814
-0.00177325
-0.000424729
-6.03415e-05
0.000230207
-0.000290549
-3.67539e-05
-0.000768556
-6.76462e-05
-0.00070091
0.00137219
-0.00143983
0.000527101
-0.00124615
0.00142601
-0.00185074
0.000352489
0.000885701
-0.000533212
-0.00124395
0.00075451
-0.00137655
0.00105703
-0.000622043
0.000986602
-0.00223275
-0.000864136
0.000860515
0.000804059
0.00177757
-0.000411792
0.000997169
-0.00148981
0.00135574
-0.000432774
-0.00115931
0.000747518
-0.000788756
-0.00132095
0.00137708
3.47822e-05
-0.00128984
0.000501089
-0.00107231
0.000304772
-0.000193169
0.000132486
-0.000325654
-0.000568424
0.00028012
-0.000848545
-0.00115971
0.000200046
-0.00135976
-0.00203271
0.00113875
-0.00200288
-0.000605534
-1.65087e-05
-0.000661727
0.000228952
-0.000678235
-2.91423e-05
-0.00200356
-0.00203202
-0.00089929
0.00170335
-0.000115486
0.000881683
0.000283355
0.00149421
0.00198671
0.00166395
-2.25869e-05
0.000904269
-0.0010104
0.000987812
-0.000262881
-0.000578046
0.000612828
-0.000349094
-0.00096392
0.000701038
-0.000462831
-0.000791249
0.000328418
-0.000486476
0.000126352
-0.000251358
8.07233e-05
-0.000332082
-0.000767821
3.39289e-05
-0.00080175
-0.00132583
-0.000352432
-0.000973397
-0.00235599
0.000890492
-0.00123959
0.000212257
-0.00181977
-0.00143141
0.000191822
0.000922647
-0.00274241
-0.00143335
0.000542892
0.00144381
0.00144716
-0.00100623
0.0013715
0.00065772
0.00210153
0.000104574
0.00134259
0.00109239
5.16111e-05
0.00104078
0.00075265
0.000228462
0.000524188
0.00055688
0.000683231
-0.000748176
-0.000308695
9.55054e-06
-0.000318246
-0.0007922
-0.000349573
-0.000442626
-0.00132297
-0.000425265
-0.000897706
-0.00185861
0.00201628
-0.00182446
-0.00072613
0.00173374
-0.00248192
-9.07192e-05
0.00128714
-0.00201327
-0.000571476
-0.000613982
0.000859856
0.000757514
-0.00120633
0.00196384
0.000895208
0.0022378
0.00141286
0.00082494
0.00245363
0.00297782
-0.000633654
0.00205374
-0.00142009
0.00311557
-0.000137755
-0.000344045
0.000563932
-0.00113541
-9.42366e-05
-0.000249808
-0.000536863
-0.000119432
-0.000417431
-0.00101714
-0.000453206
0.00181698
0.000236758
-0.00172626
-0.000287005
-0.000728093
0.000964852
-0.000973702
-0.000161706
0.000646889
-0.000933893
-0.000326813
-0.00117193
0.00044384
-0.000322807
0.000534069
0.000537049
2.66787e-05
-0.000601015
0.000574337
-0.00114525
-0.000122284
0.000346687
-0.000224403
-0.0007233
-0.00069661
0.00123366
0.00126723
0.00209217
-0.000341516
-0.000803738
-0.0017616
0.00121532
0.000876848
0.00107757
-0.000684036
-0.000285653
0.000393698
-0.000555404
-0.000673981
0.000220775
-0.000280283
-0.000125708
-0.000159944
-0.000543139
-0.000322364
-0.00125496
0.000321067
-0.000290109
-0.000604971
0.000314862
-0.000161132
-0.000501352
-5.40524e-05
0.000828164
-0.000507097
-0.000671914
0.000510783
-9.75777e-05
0.000366139
-1.94522e-05
0.000268562
-0.000217789
0.000198336
1.69824e-05
0.000143488
-0.000160471
-0.000200806
-0.000425209
-0.000257078
-0.000168131
-0.000111893
0.000260232
0.000422176
-0.000146967
0.000569143
0.00108669
0.000314452
-0.00057153
-0.000408848
-0.00121259
0.000469467
0.000617224
-0.00066228
-0.000550306
0.00134632
-2.15919e-05
0.00010907
0.000238641
0.000113583
-0.000273528
-1.09263e-05
-0.000464305
0.000184023
-0.000518358
-0.000100779
-0.000172748
-0.000423144
-0.000239121
0.000480427
3.03556e-05
-0.000795289
0.000288192
-0.000529334
1.09761e-05
-0.000241142
-0.000298568
0.000328924
-0.000344142
4.55739e-05
-7.55802e-05
-0.000236921
0.000161341
-3.8585e-05
-0.000130929
9.23445e-05
1.25588e-05
5.42343e-06
2.4196e-05
-2.96194e-05
1.26291e-05
-2.38272e-05
4.80232e-05
6.92161e-05
-9.30433e-05
8.17749e-05
-4.64557e-05
-4.65876e-05
-0.000206926
-2.39399e-05
-5.67947e-06
-7.05275e-05
-1.77541e-05
-0.00010122
-0.000105706
-0.000269351
-0.000103057
-0.000166294
-0.000674587
-9.33825e-05
0.000332023
0.00047576
0.00109298
-0.000439519
-0.000235068
0.000989826
0.000103159
1.81205e-05
2.62983e-05
0.000127191
4.56512e-05
8.15397e-05
0.000377674
5.38922e-05
-0.000226641
1.34192e-05
-7.31542e-05
-0.000153486
-0.000312275
-0.000301299
-0.000233759
-6.75399e-05
-0.000474901
-0.000145977
0.000190537
-2.91954e-05
-0.000236111
9.01331e-05
5.29986e-05
2.87763e-05
0.000145343
0.000116148
4.06369e-05
7.38632e-06
6.94132e-05
1.7568e-05
-4.85002e-05
-2.20273e-05
-0.000154206
-2.26586e-05
4.90452e-06
-4.4686e-05
-2.95637e-06
1.473e-05
2.29802e-07
4.10283e-05
-0.000101847
-5.23589e-05
-0.000268141
-0.00014668
-0.000121461
-0.000381748
0.000338224
3.94502e-05
0.000441383
5.96355e-05
8.65629e-06
3.2372e-05
9.0196e-05
0.000129646
9.63497e-05
-2.69365e-05
0.000212497
-0.000235091
8.16041e-05
-0.00030263
-1.84736e-05
-5.35149e-06
-7.7653e-06
7.9951e-06
-6.1523e-06
-3.98497e-05
-4.83623e-06
-9.22086e-05
-1.24416e-05
9.48519e-06
-1.72778e-05
5.92802e-06
1.07628e-05
-2.76765e-06
4.31348e-05
-7.3586e-05
-1.86226e-05
-0.000195047
-0.000135412
3.25215e-05
1.06132e-05
0.000162168
2.67558e-05
-7.87805e-06
5.11039e-06
4.85066e-06
-7.77979e-06
-1.30164e-06
-9.17969e-06
-7.3516e-07
-7.04463e-06
-3.31571e-06
-2.97796e-05
1.25018e-05
-4.84023e-05
-1.81348e-06
7.74149e-06
1.06884e-05
7.73815e-06
1.2702e-05
-7.59164e-06
2.33153e-05
3.05559e-05
-7.24063e-06
-5.73117e-05
8.90941e-06
-3.09873e-07
-8.86981e-06
-7.90152e-06
-2.3926e-06
-4.65203e-06
-1.12624e-05
-1.95698e-06
-6.60901e-06
2.47618e-06
8.21221e-06
1.13856e-05
-4.07251e-06
7.36557e-06
3.66564e-06
1.18778e-05
-2.0377e-06
-5.86382e-06
-9.27835e-06
-1.04102e-05
1.13183e-06
9.7541e-07
7.94755e-07
6.57081e-06
3.9183e-06
-7.67976e-06
-3.58267e-06
-1.35436e-05
-4.53157e-06
-8.11424e-06
5.12922e-07
6.05788e-06
1.23908e-05
1.33662e-05
-1.22402e-05
-1.30337e-06
1.11084e-05
2.25777e-06
2.06964e-06
8.12752e-06
-6.94672e-06
-8.25009e-06
-8.51166e-06
6.25389e-06
)
;

boundaryField
{
    movingWall
    {
        type            calculated;
        value           uniform 0;
    }
    fixedWalls
    {
        type            calculated;
        value           uniform 0;
    }
    frontAndBack
    {
        type            empty;
        value           nonuniform List<scalar> 0();
    }
    defaultFaces
    {
        type            empty;
        value           nonuniform List<scalar> 0();
    }
}


// ************************************************************************* //
