/*--------------------------------*- C++ -*----------------------------------*\
  =========                 |
  \\      /  F ield         | OpenFOAM: The Open Source CFD Toolbox
   \\    /   O peration     | Website:  https://openfoam.org
    \\  /    A nd           | Version:  8
     \\/     M anipulation  |
\*---------------------------------------------------------------------------*/
FoamFile
{
    version     2.0;
    format      ascii;
    class       volVectorField;
    location    "0.041";
    object      U;
}
// * * * * * * * * * * * * * * * * * * * * * * * * * * * * * * * * * * * * * //

dimensions      [0 1 -1 0 0 0 0];

internalField   nonuniform List<vector> 
656
(
(0.743374 0.0565318 -9.65438e-25)
(0.927889 0.0140693 1.86663e-24)
(0.954788 -0.00127358 0)
(-0.0910747 0.118997 2.39991e-23)
(0.556746 0.0977245 1.12096e-23)
(0.84124 0.000939494 0)
(-0.0571796 0.0672299 -4.93935e-23)
(-0.0145961 0.0188467 9.85077e-24)
(0.968221 -0.000150841 0)
(-0.000504816 0.138602 -2.37853e-24)
(-0.00305025 0.193131 -7.83599e-23)
(-0.117738 0.172056 0)
(0.37601 0.139833 1.00524e-23)
(0.715012 0.00930485 0)
(0.890967 0.00127326 -1.70638e-22)
(0.906508 0.000580746 4.77821e-23)
(0.00104047 0.0823445 9.70937e-24)
(0.00137435 0.0267223 0)
(0.971834 -7.66543e-05 -3.43296e-23)
(0.913556 0.000295344 -1.437e-22)
(-0.0123886 0.0928664 7.71206e-23)
(-0.00523414 0.0628689 0)
(-0.0239227 0.125101 1.33385e-24)
(-0.00789774 0.242539 1.54004e-22)
(-0.136115 0.223439 -1.67679e-22)
(0.210346 0.180417 -2.26583e-23)
(0.577661 0.0245816 0)
(0.800657 0.00637163 2.66405e-22)
(0.829386 0.0030238 -8.91474e-23)
(-0.00144233 0.0356634 0)
(-0.00015154 0.0114446 0)
(0.916829 0.000155509 5.13466e-23)
(0.97334 -4.75167e-05 -3.66563e-23)
(0.842768 0.00160676 1.95791e-22)
(0.849143 0.000800999 -5.18088e-23)
(0.853695 5.91561e-05 -1.08907e-22)
(-0.00677892 0.0608864 -1.05403e-22)
(-0.00280678 0.0409229 1.70741e-23)
(-0.0137908 0.0825005 -1.88364e-22)
(-0.0408492 0.158541 -1.57721e-22)
(-0.0167135 0.282808 1.66523e-22)
(-0.143742 0.269546 -4.78075e-24)
(0.0686484 0.217909 4.55134e-22)
(0.433158 0.0474002 0)
(0.69649 0.0162186 0)
(0.739216 0.00800582 -3.69769e-22)
(-0.000821581 0.0230278 -5.4035e-24)
(-0.000128836 0.00732315 0)
(0.854604 -0.000880788 1.20185e-22)
(0.919265 2.72732e-05 -2.78168e-23)
(0.973958 -2.07262e-05 4.9295e-24)
(0.759482 0.00432983 0)
(0.769343 0.0021628 0)
(0.776337 0.000141116 -1.06686e-22)
(0.777877 -0.00236744 4.59842e-22)
(0.763189 -0.00602321 0)
(-0.0103734 0.0366055 2.00183e-22)
(-0.00502112 0.0257432 2.95213e-22)
(-0.00202819 0.0165208 -2.87585e-22)
(-0.0250233 0.104784 -1.85302e-22)
(-0.0193412 0.0489325 5.84913e-22)
(0.286771 0.0796435 -1.328e-22)
(0.57837 0.0319578 1.75115e-22)
(0.63497 0.0165375 -5.20716e-22)
(-0.000553655 0.00885005 4.53835e-23)
(-6.71812e-05 0.00256276 6.09204e-23)
(0.844573 -0.00223377 -2.54749e-22)
(0.919812 -0.000145403 8.54743e-23)
(0.974627 1.27542e-05 5.48036e-24)
(0.72648 -0.0151732 -1.16578e-23)
(0.662297 0.00906759 0)
(0.67588 0.00461869 1.93329e-22)
(0.685696 0.000363502 2.04168e-22)
(0.688269 -0.00480539 -8.82592e-22)
(0.669103 -0.0125042 2.27357e-22)
(-0.00839853 0.0139392 8.88665e-22)
(-0.00405384 0.00914352 -6.82028e-24)
(-0.00182789 0.00551012 0)
(-0.000643761 0.00295682 1.05799e-22)
(0.44765 0.0557728 0)
(0.516651 0.0302902 6.66038e-22)
(-8.95328e-05 0.00127558 -1.00162e-22)
(5.52913e-05 0.000242052 -3.0871e-23)
(0.604614 -0.0240707 4.71925e-22)
(0.820075 -0.0059159 1.49724e-22)
(0.914326 -0.00037222 0)
(0.974971 4.22899e-05 -5.2851e-23)
(0.619564 -0.0301802 -2.88862e-22)
(0.467959 -0.0471963 7.26312e-22)
(0.251397 -0.19073 -8.79224e-22)
(0.550319 0.0169852 0)
(0.567412 0.00866407 4.66388e-23)
(0.580355 0.000949808 -1.45225e-22)
(0.584637 -0.00870331 5.12032e-22)
(0.561788 -0.0231116 -8.6991e-22)
(-0.0147967 0.00626345 3.73894e-22)
(-0.0092541 0.0030672 -3.98973e-22)
(-0.00537871 0.00139845 -1.97787e-22)
(-0.00280142 0.000480662 3.91469e-22)
(-0.00116881 4.40339e-05 4.71443e-23)
(-0.000204041 -6.19802e-05 -2.85062e-23)
(-0.136754 -0.25017 5.90077e-23)
(0.411893 -0.147954 -6.13921e-23)
(0.732671 -0.00900897 -7.96007e-22)
(0.901087 -0.00112196 0)
(0.973698 0.00011008 0)
(0.499177 -0.0538547 5.52278e-22)
(0.325171 -0.0809313 -2.77421e-22)
(0.106161 -0.229979 1.02598e-22)
(-0.141462 -0.298086 1.38434e-21)
(-0.046571 0.0112437 0)
(-0.0340197 0.00583508 1.86937e-22)
(-0.0235941 0.00285639 -6.6024e-22)
(-0.0149916 0.00114507 1.84113e-22)
(-0.00793009 0.000287869 -4.38699e-23)
(-0.00212913 2.20143e-05 -2.72374e-23)
(-0.00758172 -0.288778 0)
(-0.120677 -0.194884 0)
(0.582885 -0.103398 4.88241e-22)
(0.850331 -0.00087723 -3.9966e-23)
(0.970577 0.000203406 -1.03069e-22)
(-0.0156334 -0.332583 -1.64656e-21)
(-0.0759328 0.00998469 0)
(-0.0568181 0.00551485 1.93248e-22)
(-0.0403435 0.00275808 -1.42212e-24)
(-0.0262525 0.00116993 9.55441e-23)
(-0.0142646 0.000360128 -4.48997e-23)
(-0.00411492 7.19398e-05 0)
(-0.027651 -0.163867 -5.51205e-22)
(-0.00297947 -0.233051 0)
(-0.095001 -0.136184 5.0832e-22)
(0.757877 -0.0597743 0)
(0.95654 0.00135201 7.64354e-23)
(-0.0467307 -0.204558 0)
(-0.0979256 0.00825077 0)
(-0.0740551 0.00458886 1.20156e-22)
(-0.0531011 0.00233447 -3.48376e-22)
(-0.0348964 0.00102452 1.12722e-22)
(-0.0192164 0.000344623 5.03779e-23)
(-0.00577786 8.90379e-05 -1.68858e-23)
(-0.0156516 -0.118545 2.82628e-22)
(-0.0145523 -0.12306 0)
(-0.000255374 -0.169104 -4.45521e-22)
(-0.0605239 -0.0776032 4.30422e-22)
(0.931392 -0.0147223 0)
(-0.0284239 -0.147964 0)
(-0.106755 0.00719168 1.53258e-22)
(-0.0808201 0.00406136 -1.47958e-22)
(-0.0580406 0.00206549 1.43169e-22)
(-0.038213 0.00090112 -2.74086e-22)
(-0.0211138 0.00030344 3.76929e-22)
(-0.00649214 7.855e-05 -5.02558e-23)
(-0.0133183 -0.0674339 2.43802e-22)
(-0.00771771 -0.0887502 -5.22082e-22)
(-0.00597002 -0.0838757 1.52077e-22)
(0.00180973 -0.100711 -4.61985e-22)
(-0.0141884 -0.0214012 1.30995e-23)
(-0.0240406 -0.0862955 0)
(-0.0153615 -0.0448748 -5.49952e-23)
(-0.107632 0.00774548 -1.88709e-22)
(-0.0813817 0.0048935 7.60674e-22)
(-0.0585238 0.00262707 -7.26294e-22)
(-0.0386656 0.00113307 0)
(-0.0214541 0.000349777 0)
(-0.00669427 7.25557e-05 -5.51319e-24)
(-0.0084403 -0.034824 1.17277e-22)
(-0.00664923 -0.0494856 3.43286e-24)
(-0.00303001 -0.0603137 3.98002e-22)
(-0.00125993 -0.0474629 -1.49545e-22)
(0.0023371 -0.0310105 0)
(-0.00865403 -0.0195045 8.91293e-22)
(-0.0630508 0.00405306 8.29696e-22)
(-0.0412996 0.0025512 -8.57938e-22)
(-0.0227002 0.000902487 0)
(-0.00698626 0.000157184 -7.77265e-24)
(-0.0047607 -0.0145408 -2.36348e-22)
(-0.00416151 -0.0253013 -9.16949e-23)
(-0.00272289 -0.0330902 1.89048e-22)
(-0.000643403 -0.0341243 -1.29345e-22)
(0.000182042 -0.014335 4.94316e-23)
(-0.00442092 -0.005305 0)
(-0.00267124 0.00320266 -1.02364e-21)
(-0.0502984 0.00116125 0)
(-0.017608 0.000390069 -2.71678e-23)
(-0.00150632 0.000687656 0)
(-0.00235316 -0.00362892 -2.40576e-22)
(-0.00232269 -0.0101755 -4.59363e-22)
(-0.00171047 -0.0167434 -6.25013e-23)
(-0.000722551 -0.018515 1.27175e-22)
(7.62394e-05 -0.0106149 -4.96219e-23)
(-0.00106224 -0.000831731 2.08746e-21)
(-0.00128896 0.00155786 2.17815e-21)
(-0.00307698 0.00366497 7.01746e-23)
(-0.000141389 0.00188029 -4.81403e-22)
(-0.000741749 0.000950051 -9.6306e-25)
(-0.00110518 -0.00228706 1.24596e-22)
(-0.000949156 -0.00650144 3.72062e-22)
(-0.000480925 -0.00928596 7.62351e-24)
(-6.55869e-05 -0.00580441 -2.27965e-23)
(-0.000145294 -0.00246978 -1.85548e-24)
(-0.000444942 -0.00134983 -1.74637e-21)
(-0.000540055 0.00069023 -5.26697e-22)
(-0.00134776 0.00156684 0)
(-0.00316934 0.00905622 1.51599e-21)
(0.000369378 0.00144031 -2.58733e-22)
(-1.06006e-05 0.00167651 2.56501e-22)
(-0.000311545 0.00098235 1.28425e-22)
(-0.00043518 -0.00129336 0)
(-0.000269512 -0.00348805 -1.21946e-22)
(-6.43438e-05 -0.00291369 1.71309e-23)
(0.000222141 -0.00271643 8.27308e-22)
(1.28814e-05 -0.00233168 3.33689e-22)
(-0.000158768 -0.00141296 1.9664e-22)
(-0.000171225 0.000203149 5.35785e-23)
(-0.000331407 0.000542011 -6.14249e-23)
(-0.000456019 0.00209571 1.09149e-21)
(0.000296986 0.000512142 1.0813e-21)
(0.000237121 0.00121485 -4.04729e-22)
(2.54751e-05 0.00136609 -2.63972e-22)
(-0.000106141 0.000830225 -1.28485e-22)
(-0.000114595 -0.000601138 0)
(-3.93021e-05 -0.00105708 -1.12763e-23)
(0.000509676 -0.00198076 0)
(0.000179754 -0.00231905 -2.8625e-22)
(4.64036e-05 -0.00194289 -9.86291e-22)
(-3.66528e-05 -0.00117929 3.21389e-22)
(-2.16788e-05 -2.16824e-05 -3.58049e-22)
(-1.22638e-05 1.20472e-05 9.65102e-24)
(0.000510173 0.000183562 -4.69762e-22)
(0.000164811 0.000383424 7.16149e-22)
(0.000133697 0.00094105 -6.92929e-22)
(2.52746e-05 0.00099073 1.32344e-22)
(-1.71609e-05 0.00055278 0)
(-1.09101e-05 -0.000147897 1.11496e-23)
(0.000375713 -0.000674255 0)
(0.000306412 -0.00163534 5.50307e-22)
(0.000112025 -0.00181201 7.16331e-22)
(3.72059e-05 -0.00142057 9.39485e-22)
(8.29772e-06 -0.000770443 -3.33692e-22)
(9.72006e-06 -5.25491e-05 -2.20378e-23)
(0.00115017 0.000264568 -5.60785e-22)
(0.000364057 0.000100008 0)
(8.05944e-05 0.000263512 5.14289e-22)
(6.23877e-05 0.000652552 0)
(1.60527e-05 0.000588985 0)
(6.07056e-06 0.00020146 0)
(0.000693897 -0.000225286 6.27109e-22)
(0.000203149 -0.00050763 -5.69206e-22)
(0.000163538 -0.00124329 -5.59968e-22)
(5.68514e-05 -0.00126604 -4.18014e-22)
(2.34955e-05 -0.000846391 -4.34671e-22)
(1.30419e-05 -0.000272582 1.31169e-23)
(0.00160739 0.000139691 0)
(0.000919079 0.000152118 1.40547e-22)
(0.000241047 4.94317e-05 0)
(3.12064e-05 0.000161757 1.9905e-27)
(2.12446e-05 0.000371019 0)
(8.4872e-06 0.000188901 -8.97969e-23)
(0.00175185 -2.35109e-05 0)
(0.00150135 -0.000245612 -5.65989e-22)
(0.000505346 -0.000126875 -1.5796e-22)
(9.63055e-05 -0.000349388 2.91824e-22)
(7.34013e-05 -0.000848139 -4.14922e-22)
(2.40083e-05 -0.000726459 -1.31446e-22)
(1.21024e-05 -0.000272686 9.15503e-23)
(0.00129258 7.90459e-05 -1.88751e-23)
(0.000685263 7.89065e-05 -2.1019e-22)
(0.000144506 1.92621e-05 0)
(6.14926e-06 8.0504e-05 -1.08201e-22)
(5.40382e-06 0.000108678 9.0586e-23)
(0.00140686 -1.61744e-05 2.09874e-24)
(0.00119906 -0.000144853 6.35627e-22)
(0.000341911 -6.3605e-05 -4.75288e-27)
(3.66478e-05 -0.000215066 1.33537e-25)
(2.39433e-05 -0.000474577 -2.65251e-22)
(9.32648e-06 -0.000219926 8.36225e-23)
(0.000973357 4.08702e-05 1.48561e-22)
(0.000463387 3.48727e-05 1.02537e-22)
(7.12946e-05 3.74743e-06 -1.26137e-22)
(-1.13502e-06 1.8633e-05 2.30034e-23)
(0.00105924 -9.73038e-06 2.09423e-24)
(0.00089646 -7.76693e-05 -1.4059e-22)
(0.000209792 -2.52328e-05 4.54109e-22)
(7.06535e-06 -0.000107577 -2.12744e-22)
(5.88673e-06 -0.000134694 3.38544e-26)
(0.000666527 1.82424e-05 0)
(0.000260588 1.15318e-05 1.13803e-22)
(1.69363e-05 -1.02856e-06 7.96634e-23)
(0.000725775 -5.33333e-06 0)
(0.000608624 -3.55466e-05 -2.05673e-22)
(0.000106101 -5.19985e-06 3.95863e-22)
(-1.3733e-06 -2.50089e-05 4.39571e-23)
(0.000381788 6.26977e-06 -9.70895e-25)
(7.94917e-05 2.75163e-06 -1.43003e-22)
(0.000416205 -2.6405e-06 9.69633e-25)
(0.000343954 -1.24806e-05 -1.14018e-22)
(2.6115e-05 1.11275e-06 1.12921e-22)
(0.000123747 1.6046e-06 4.33774e-23)
(0.000135166 -1.19579e-06 0)
(0.000105749 -3.49284e-06 -1.09953e-23)
(-0.142809 0.304007 2.22397e-21)
(-0.0269683 0.2589 5.09848e-22)
(-0.0419148 0.128261 0)
(-0.075388 0.189467 2.78668e-21)
(-0.062914 0.194168 -2.94483e-21)
(-0.0730377 0.268178 0)
(-0.03736 0.311051 0)
(-0.0980597 0.353147 -1.02579e-21)
(-0.0849657 0.314119 0)
(-0.0388687 0.266528 -1.88527e-21)
(0.152102 0.126652 4.23744e-21)
(-0.095529 0.278738 0)
(-0.0338 0.0636789 -3.65786e-22)
(-0.0560532 0.1052 0)
(-0.016204 0.0192665 -3.81913e-21)
(-0.0385844 0.0469688 3.90828e-21)
(-0.0831314 0.121628 -2.27085e-21)
(-0.114756 0.15928 0)
(-0.0953897 0.203376 0)
(-0.119101 0.240094 6.18443e-22)
(-0.108835 0.295398 0)
(-0.0975606 0.289443 1.95871e-21)
(-0.0154032 0.194358 2.36971e-21)
(0.0945673 0.155414 -5.71794e-21)
(0.302632 0.0911348 1.1233e-21)
(-0.149964 0.235064 -5.90101e-22)
(-0.140613 0.252269 0)
(-0.0215712 0.0120659 -3.15977e-21)
(-0.0491752 0.0286357 8.65575e-22)
(-0.0607521 0.0521263 7.20572e-22)
(-0.0913271 0.0818026 2.30896e-21)
(-0.121449 0.0805727 -4.44648e-21)
(-0.167377 0.115277 -3.93429e-21)
(-0.159341 0.156734 -3.00714e-21)
(-0.184448 0.185226 5.63262e-21)
(-0.131064 0.208493 -1.64182e-21)
(-0.0601891 0.183874 -1.71402e-21)
(0.0429931 0.128258 0)
(0.387118 0.0502976 -5.74641e-21)
(0.190088 0.106288 0)
(0.423316 0.0296585 0)
(0.243177 0.0591325 4.83639e-21)
(-0.206769 0.17251 0)
(-0.178949 0.179499 0)
(-0.0110036 -0.277255 6.03802e-21)
(-0.146213 -0.330214 0)
(0.385879 -0.0833655 0)
(0.435699 0.0146868 -1.97042e-22)
(0.272718 0.0339227 0)
(0.268572 -0.0942149 0)
(0.455575 -0.0375382 1.18359e-21)
(0.457355 0.00172362 3.6972e-21)
(0.29539 0.00841134 0)
(0.318807 -0.0441337 0)
(0.472765 -0.0152445 0)
(0.323795 -0.0149355 -3.75403e-21)
(-0.0639308 0.022524 1.14993e-21)
(-0.0973481 0.035969 -1.44597e-21)
(-0.12042 0.0485121 4.75626e-21)
(-0.173305 0.0546486 0)
(-0.202086 0.0848724 0)
(-0.231406 0.0951343 -3.10584e-21)
(-0.249375 0.119647 -2.36358e-21)
(-0.152554 0.138735 0)
(0.0669307 0.0800994 3.34742e-21)
(-0.0357008 0.117649 0)
(0.151026 0.043254 0)
(0.00411945 0.0677924 -3.62002e-21)
(-0.266813 0.105826 7.84945e-21)
(-0.228747 0.112711 -2.31941e-21)
(-0.0115704 -0.263996 -3.40761e-21)
(0.171905 -0.137566 7.67164e-21)
(0.146611 -0.156768 -6.0035e-21)
(-0.115024 -0.386689 1.70494e-21)
(-0.0775198 -0.328673 -3.71107e-21)
(-0.0363274 -0.359959 2.43773e-22)
(0.0470509 -0.183369 -6.36496e-21)
(0.0502561 -0.15352 2.08652e-21)
(0.148661 -0.109844 3.22812e-21)
(0.132708 0.00983421 0)
(0.0247926 0.0377221 0)
(0.085251 -0.0940326 -3.55764e-21)
(0.188151 -0.0571167 0)
(0.0996653 -0.0462023 -3.31718e-21)
(0.199126 -0.02113 3.02503e-21)
(0.0601622 -0.00994148 4.61069e-21)
(-0.0971995 0.0161151 1.65367e-21)
(-0.140917 0.0247803 0)
(-0.167969 0.0342045 0)
(-0.21319 0.0398986 3.28504e-21)
(-0.24468 0.0585223 0)
(-0.273733 0.0594698 8.26579e-21)
(-0.293986 0.0754171 -7.06369e-21)
(-0.109068 0.0537289 0)
(-0.132566 0.0684614 -5.67776e-21)
(-0.222882 0.0867292 1.15655e-20)
(-0.195656 0.0395027 0)
(-0.292243 0.07455 -7.47547e-21)
(-0.305611 0.0684809 -3.98758e-21)
(-0.0862197 -0.314496 0)
(-0.071217 -0.247975 7.72851e-21)
(-0.0720268 -0.243076 0)
(-0.0641656 -0.322429 -5.27629e-22)
(-0.090312 -0.325306 4.14395e-22)
(-0.102885 -0.241715 -7.93734e-21)
(-0.0612528 -0.188 -7.29226e-21)
(-0.0913253 -0.162112 9.69707e-21)
(-0.0383282 -0.115759 2.99107e-21)
(-0.104786 -0.0831268 -3.91851e-21)
(-0.0513704 -0.052657 0)
(-0.0784234 -0.0180711 -3.18713e-21)
(-0.172889 0.0104985 0)
(-0.123256 0.0131195 0)
(-0.16743 0.0196972 -1.28179e-21)
(-0.19767 0.0254905 -5.02236e-21)
(-0.231911 0.0317699 4.30728e-21)
(-0.260557 0.0423523 -1.53278e-21)
(-0.278882 0.0444234 -1.9675e-21)
(-0.306689 0.0561879 6.2296e-21)
(-0.277519 0.0461803 -6.94908e-21)
(-0.300725 0.0611579 8.47259e-21)
(-0.264113 0.0151245 0)
(-0.298386 0.0390969 -1.19055e-21)
(-0.32031 0.061101 0)
(-0.313422 0.0558848 0)
(-0.0467805 -0.173512 -1.23709e-20)
(-0.0895448 -0.248107 4.26729e-21)
(-0.110053 -0.257968 5.15564e-21)
(-0.122137 -0.287713 -7.10576e-22)
(-0.138284 -0.258402 6.55548e-22)
(-0.172706 -0.20905 -7.46699e-21)
(-0.175586 -0.169795 0)
(-0.196181 -0.112425 -9.33229e-21)
(-0.280432 0.0174487 -4.39269e-21)
(-0.23767 -0.0816464 6.78944e-21)
(-0.273868 -0.0185703 2.80192e-21)
(-0.135164 0.0115018 4.52039e-21)
(-0.293603 0.0524517 2.6985e-21)
(-0.172989 0.0177786 -3.22956e-21)
(-0.198354 0.0230957 -2.79595e-21)
(-0.225531 0.0310151 -6.05544e-21)
(-0.260629 0.0393571 1.35496e-21)
(-0.269907 0.0434895 -3.4333e-21)
(-0.29325 0.0453554 -2.69973e-21)
(-0.317212 0.0599863 6.72992e-22)
(-0.312372 0.0508053 1.23298e-21)
(-0.273617 0.0584048 4.81786e-21)
(-0.290009 0.0562176 1.99722e-21)
(-0.300768 0.0637499 -1.27962e-21)
(-0.292923 0.0604436 -1.91922e-21)
(-0.241134 0.063856 -6.67749e-21)
(-0.0388345 -0.104392 0)
(-0.0624344 -0.165037 8.27853e-21)
(-0.181897 0.0654579 0)
(-0.220193 0.0549427 4.37765e-21)
(-0.11986 0.0609579 8.47603e-21)
(-0.145516 0.0575993 -5.59693e-21)
(-0.0859396 -0.180343 0)
(-0.125212 -0.220152 -4.90098e-21)
(-0.162359 -0.197509 1.50034e-20)
(-0.218236 0.0282119 -5.83718e-21)
(-0.244478 0.00848184 4.62072e-21)
(-0.179325 -0.156305 -1.07003e-20)
(-0.230111 -0.076519 1.13803e-22)
(-0.221621 -0.0472587 -9.42655e-21)
(-0.135307 0.0116688 0)
(-0.265114 0.0522597 0)
(-0.244189 0.0392107 2.59791e-22)
(-0.249692 0.0458893 -3.54579e-22)
(-0.168599 0.0199322 -5.02571e-21)
(-0.196553 0.0261104 5.34474e-21)
(-0.214841 0.0311521 4.63682e-21)
(-0.283568 0.069383 1.83126e-21)
(-0.275597 0.0689559 -4.16979e-22)
(-0.246108 0.0766322 3.63377e-21)
(-0.226968 0.075694 1.32591e-21)
(-0.258041 0.056702 -5.47765e-21)
(-0.263568 0.0711713 2.0003e-23)
(-0.27036 0.0631973 4.67712e-21)
(-0.200218 0.0813255 2.29947e-21)
(-0.175379 0.0796702 -7.50221e-21)
(-0.118984 0.0725274 2.88259e-21)
(-0.144086 0.0798852 2.38148e-21)
(-0.0949861 0.0702851 -3.36722e-21)
(-0.0570796 0.0519783 0)
(-0.0753199 0.0584504 2.79764e-21)
(-0.0911142 0.0542469 -2.39996e-22)
(-0.0826951 0.0466114 0)
(-0.0247666 -0.0542939 -4.19714e-21)
(-0.0488355 -0.0942949 4.10642e-21)
(-0.0592025 -0.101785 2.88752e-21)
(-0.0947831 -0.137275 0)
(-0.106781 0.0314475 1.02034e-20)
(-0.140074 0.0338679 0)
(-0.167757 0.01865 5.66233e-21)
(-0.120807 -0.115554 1.30648e-22)
(-0.151611 -0.026614 1.53362e-21)
(-0.150916 -0.123417 -4.21986e-21)
(-0.179113 -0.0557253 8.46658e-21)
(-0.013811 -0.0249937 -4.96277e-22)
(-0.0253397 -0.0427306 0)
(-0.125512 0.0106816 0)
(-0.0847435 0.00379194 -5.1495e-22)
(-0.102467 0.00496707 5.191e-22)
(-0.22278 0.0437653 -3.00967e-21)
(-0.233362 0.0537457 2.64638e-21)
(-0.149442 0.0164527 0)
(-0.184112 0.0254003 -2.45767e-21)
(-0.200224 0.0348341 2.9602e-21)
(-0.198048 0.0856472 1.24122e-21)
(-0.23804 0.0760151 -2.01818e-21)
(-0.231515 0.0809607 -2.56085e-21)
(-0.217623 0.0596832 -3.41036e-21)
(-0.217917 0.0709982 6.7623e-22)
(-0.175289 0.0835569 0)
(-0.147147 0.0836537 0)
(-0.133685 0.0820825 0)
(-0.106332 0.0786983 -2.97494e-21)
(-0.0868398 0.0721532 -1.6752e-21)
(-0.0669264 0.0655879 3.98842e-21)
(-0.0501146 0.0537687 0)
(-0.0077305 0.0144129 0)
(-0.00494939 0.00953728 -6.67523e-22)
(-0.0141358 0.0257602 3.59573e-21)
(-0.0226576 0.0347505 -3.15207e-21)
(-0.0360434 0.0467374 0)
(-0.0256206 0.0326281 -5.85464e-21)
(-0.0390075 0.0399629 3.72216e-23)
(-0.0106355 0.0153247 0)
(-0.0145419 0.0200256 -4.59815e-21)
(-0.00487061 0.00585701 0)
(-0.0412567 0.035175 1.33809e-23)
(-0.0591717 0.0397772 2.03525e-23)
(-0.0583226 0.0301895 3.55522e-21)
(-0.0916175 0.0257305 -4.32523e-21)
(-0.0360405 -0.0475315 8.81366e-21)
(-0.0599725 -0.066379 -1.855e-20)
(-0.0875623 -0.0665721 3.95154e-21)
(-0.0869164 0.00896895 -2.27986e-21)
(-0.0957929 -0.0375819 8.37735e-21)
(-0.116228 -0.0223691 -5.88569e-21)
(-0.00681582 -0.00711996 0)
(-0.0129255 -0.0154052 0)
(-0.0160023 -0.0166962 -3.64675e-21)
(-0.0319624 -0.0281122 -5.33411e-21)
(-0.00417221 0.0067545 5.64852e-22)
(-0.117255 0.0103137 1.25503e-21)
(-0.0694641 0.000796505 0)
(-0.0871007 0.00277956 -1.09806e-21)
(-0.145968 0.0290638 1.49224e-21)
(-0.172686 0.037224 -4.46104e-21)
(-0.188344 0.054598 -8.06699e-23)
(-0.161409 0.0673253 4.05003e-21)
(-0.18054 0.0754891 -4.75336e-21)
(-0.168073 0.0808288 3.23374e-21)
(-0.0983973 0.0784881 -3.9297e-21)
(-0.127684 0.0775333 6.07477e-23)
(-0.125103 0.0821532 1.1114e-21)
(-0.0368444 0.0526938 4.0438e-21)
(-0.0561999 0.0639874 -4.38624e-23)
(-0.0780697 0.0712221 1.95836e-21)
(-0.0110684 0.0271235 1.76627e-21)
(-0.0271427 0.0445127 -2.13982e-21)
(-0.00626019 0.017603 -1.58756e-21)
(-0.016379 0.0184177 5.23328e-21)
(-0.0259151 0.0238171 0)
(-0.0049668 0.00501063 4.11125e-21)
(-0.00729517 0.00751508 -7.26602e-21)
(-0.00219397 0.000407325 0)
(-0.00220315 0.000204219 0)
(-0.00445565 -0.002264 -1.15543e-21)
(-0.0264596 0.0193117 5.24121e-21)
(-0.0408622 0.021614 -1.563e-23)
(-0.0407695 0.0141776 -1.07805e-20)
(-0.0625488 0.00754952 1.08829e-20)
(-0.0385105 -0.0178037 3.80799e-21)
(-0.0537277 -0.017635 -3.09026e-21)
(-0.047358 -0.00255957 -3.80782e-21)
(-0.00646944 -0.00316806 7.17196e-22)
(-0.0129321 -0.00716711 2.03345e-21)
(-0.0211746 -0.00662969 1.40878e-21)
(-0.00503182 0.0133306 -3.05067e-21)
(-0.0290564 0.0491813 0)
(-0.0612287 0.0634755 0)
(-0.0926214 0.0357832 3.94738e-21)
(-0.108195 0.054976 -2.7683e-21)
(-0.100441 0.0666919 0)
(-0.0221395 0.00258433 3.06517e-23)
(-0.0622791 0.0147176 0)
(-0.00995122 0.0307163 -1.03587e-22)
(-0.000839399 0.00161258 -6.08641e-22)
(-0.000231729 0.00192497 2.99363e-21)
(-0.00916127 0.00692003 7.49781e-21)
(-0.0145149 0.0105713 0)
(-0.00152417 -0.00066896 -3.39787e-21)
(-0.00339352 0.000753598 -1.07857e-20)
(-0.000485123 -0.00218135 5.95473e-21)
(-0.00140027 0.00132237 4.21833e-22)
(-0.00532153 -0.000804516 0)
(-0.0156792 0.00603162 0)
(-0.0254277 0.00785045 0)
(-0.0278925 0.000524998 0)
(-0.00737565 -0.000685741 4.8128e-21)
(-0.0160848 -0.00294854 -4.1124e-21)
(-0.0183282 0.000581427 0)
(-0.00131087 0.0098591 0)
(-0.000448853 0.00153114 2.72234e-21)
(0.000546161 0.00158358 -6.82855e-21)
(0.000606276 0.00184319 1.18862e-20)
(0.000578378 0.00166448 -7.18355e-21)
(0.000830149 0.00116491 -2.33862e-21)
(0.000446758 0.000606487 0)
(-0.00309847 4.58179e-05 3.51815e-21)
(-0.00660401 0.00140964 0)
(0.00014336 -0.00278535 0)
(-0.000235888 -0.00228251 0)
(0.000214106 -0.00289506 -1.29456e-21)
(-0.000825875 0.000993604 2.2357e-21)
(-0.00309531 0.000736948 0)
(-0.00241536 0.000427399 6.76788e-21)
(-0.00459466 0.000773384 1.79001e-21)
(-0.00593533 0.00150526 -6.75011e-21)
(0.00107965 0.00136632 0)
(0.000682474 0.00121232 5.27879e-21)
(0.00117622 0.00101186 8.5616e-21)
(0.00140153 0.00117676 -9.71101e-21)
(0.00064383 0.000328816 -1.74307e-22)
(0.00115991 0.000621676 7.23236e-21)
(0.000727351 -0.00217353 1.4528e-21)
(0.000146123 -0.00120388 -1.08942e-21)
(0.000720757 -0.00220327 -8.36522e-21)
(0.00091355 -0.00256705 1.14305e-20)
(0.00114136 -0.00241237 0)
(0.00121565 0.000900474 -5.35767e-21)
(0.000436766 0.000819432 -7.84227e-21)
(0.00159144 2.09388e-05 1.16271e-20)
(0.00147792 -0.000936683 0)
(0.00103023 -0.0014166 0)
(0.000561823 -0.000788569 4.45977e-21)
(0.00185667 0.000797381 3.35711e-21)
(0.00196574 0.000758117 -5.9545e-21)
(0.00137409 0.000435173 -1.30429e-22)
(0.00180925 0.000568142 1.76967e-24)
(0.00151316 -0.00127987 0)
(0.0018611 -0.00154601 1.9503e-21)
(0.00209351 -0.00103085 -1.68487e-21)
(0.00241704 0.000264611 -4.11271e-24)
(0.0023379 -0.000513141 7.99776e-22)
(0.00233512 -0.000104227 6.32186e-21)
(0.000850193 -0.000374333 -5.91161e-21)
(0.00154028 -0.0007247 0)
(0.00192081 0.000240222 -8.83051e-21)
(0.00232468 0.000194066 4.21008e-21)
(0.00210223 -3.09024e-05 4.48324e-21)
(0.0018174 -0.000413541 0)
(0.00220472 -0.000429236 -4.91178e-21)
)
;

boundaryField
{
    movingWall
    {
        type            fixedValue;
        value           uniform (1 0 0);
    }
    fixedWalls
    {
        type            noSlip;
    }
    frontAndBack
    {
        type            empty;
    }
    defaultFaces
    {
        type            empty;
    }
}


// ************************************************************************* //
