/*--------------------------------*- C++ -*----------------------------------*\
  =========                 |
  \\      /  F ield         | OpenFOAM: The Open Source CFD Toolbox
   \\    /   O peration     | Website:  https://openfoam.org
    \\  /    A nd           | Version:  8
     \\/     M anipulation  |
\*---------------------------------------------------------------------------*/
FoamFile
{
    version     2.0;
    format      ascii;
    class       volVectorField;
    location    "0.068";
    object      U;
}
// * * * * * * * * * * * * * * * * * * * * * * * * * * * * * * * * * * * * * //

dimensions      [0 1 -1 0 0 0 0];

internalField   nonuniform List<vector> 
424
(
(-0.00293616 -0.000189959 6.80853e-26)
(-0.0146515 0.000961557 0)
(-0.0131019 0.00276776 2.04587e-23)
(0.000179578 0.00315101 -1.16701e-24)
(-0.0473532 0.00514727 -2.47646e-23)
(-0.0230448 0.000844521 -3.38781e-23)
(-0.00299433 0.0138298 3.23441e-24)
(-0.000995339 0.0155055 -7.93596e-25)
(-0.0687355 0.00259466 -3.6131e-23)
(-0.0257651 0.000296801 3.10976e-23)
(-0.0703232 0.00228278 9.63765e-23)
(-0.024038 0.000465961 0)
(-0.00519758 0.0503236 1.16769e-24)
(-0.000963627 0.0244877 0)
(-0.0744397 0.00056481 3.30259e-23)
(-0.0255811 -4.07931e-05 1.7511e-23)
(-0.0590489 0.000689197 0)
(-0.0196481 7.80994e-05 0)
(-0.00034138 0.0271132 0)
(-0.00267686 0.0732618 -2.7844e-23)
(-0.0734021 4.81139e-05 3.49545e-23)
(-0.0258206 -0.000338611 -1.87545e-23)
(-0.0573197 0.0002365 0)
(-0.0196373 5.60105e-05 0)
(1.31925e-05 0.0260434 1.30697e-23)
(-0.000172627 0.0781322 2.51268e-23)
(-0.0023336 0.0684509 -3.74644e-23)
(-0.000418201 0.0233101 -3.89037e-23)
(-0.0750835 -0.0003272 5.88741e-23)
(-0.0232408 -0.00084799 0)
(-0.0150331 -0.000969397 -1.31698e-22)
(-0.00303879 0.000215689 0)
(-0.0530516 -1.92068e-05 -1.05688e-22)
(-0.018055 3.82498e-05 9.88297e-23)
(-0.0222842 0.0479302 6.83823e-23)
(0.000239868 0.0268 0)
(0.000145863 0.0295876 -2.27069e-22)
(0.00335077 0.0631449 2.33922e-22)
(8.24655e-05 0.0746632 2.79497e-23)
(-0.000419351 0.0601137 3.9227e-24)
(-6.77784e-06 0.0199983 -3.85035e-24)
(-0.0699941 -0.00256853 -1.05445e-22)
(-0.0489907 -0.00549394 1.33517e-22)
(-0.0141025 -0.00310146 0)
(0.000224036 -0.00336412 -2.95519e-22)
(-0.0494735 -0.000265428 3.46999e-22)
(-0.0162224 -3.37415e-05 0)
(-0.106049 0.152678 -1.89065e-22)
(0.809203 0.0278417 -5.01858e-23)
(-0.000696184 0.0781754 -1.62203e-23)
(-0.00573091 0.0866555 0)
(-0.00507367 0.166848 -3.61595e-24)
(-0.000244492 0.0579435 0)
(-4.43902e-05 0.0199175 0)
(-0.00400038 -0.0151976 5.94383e-23)
(-0.00125641 -0.0170686 2.58428e-22)
(-0.0531149 -0.000629289 0)
(-0.0174754 -0.000155191 0)
(0.405638 0.118729 1.41483e-22)
(0.861377 -0.0037885 -1.19168e-23)
(0.000144673 0.0544626 -9.2731e-23)
(-8.89687e-06 0.0187226 8.78989e-23)
(-0.00671218 -0.0544254 0)
(-0.00104167 -0.026809 0)
(0.551437 0.0129207 1.56436e-22)
(0.88273 -0.00213943 0)
(0.000408081 0.0516084 -7.97508e-23)
(9.87634e-05 0.0174749 7.33896e-23)
(-0.000335116 -0.0292959 6.02645e-23)
(-0.00298274 -0.0790266 -1.8595e-23)
(0.880717 -0.00128592 -1.38274e-23)
(0.626374 0.00206129 -1.15917e-22)
(-0.00228606 0.0558781 0)
(-0.000204686 0.0209847 0)
(7.71245e-05 -0.0288861 4.72763e-23)
(-0.000366272 -0.083484 1.91047e-23)
(-0.00189931 -0.0658994 -3.97207e-22)
(-0.000343518 -0.022436 0)
(0.879096 -0.000317034 1.3063e-23)
(0.637002 -0.000768013 -4.91218e-23)
(0.826678 -0.0267488 0)
(0.000338158 -0.0288243 -9.09959e-23)
(0.881773 0.0014074 0)
(0.886711 0.00204225 0)
(0.865839 0.00377292 0)
(-0.019522 -0.0491255 0)
(0.00355483 -0.0683076 -4.80776e-22)
(0.000174774 -0.0308328 5.9567e-22)
(0.000290551 -0.082174 4.36575e-23)
(-0.000559826 -0.0577253 0)
(-3.69101e-05 -0.0192442 0)
(0.639154 -0.00072583 -2.08442e-23)
(-0.104738 0.00186893 -4.20518e-23)
(0.447584 -0.115196 9.64675e-22)
(-0.000517992 -0.0839556 -8.91267e-23)
(0.641638 0.001318 -1.2372e-22)
(0.643162 -0.00139837 2.5737e-22)
(0.570044 -0.0108389 -1.24184e-21)
(-0.1084 -0.154018 -1.80905e-22)
(-0.00644854 -0.179396 7.01049e-22)
(-0.00653532 -0.0905096 -5.692e-22)
(5.529e-05 -0.0573274 -3.09733e-23)
(3.51908e-05 -0.0196924 3.00377e-23)
(-0.0932074 5.79467e-05 0)
(-0.0405081 -4.34324e-05 -4.09737e-23)
(0.000387569 -0.0594245 -1.38401e-22)
(6.08827e-05 -0.0204903 -1.31588e-22)
(-0.0956128 -0.000318154 2.40232e-23)
(-0.0338645 6.27466e-06 0)
(-6.40048e-05 -0.0579785 9.95369e-23)
(8.5529e-05 -0.0199456 -9.489e-23)
(-0.0893472 -0.000141651 -2.48827e-22)
(-0.0351838 -0.000111244 -2.27466e-23)
(-0.00299849 -0.0605816 0)
(-0.00022045 -0.0234973 0)
(-0.0824089 0.000297736 1.35985e-22)
(-0.0326828 -6.71752e-05 0)
(-0.0935494 -0.00161886 0)
(-0.0294522 -9.4627e-06 1.2164e-22)
(-0.0350906 -0.000114691 0)
(-0.0797287 0.0171032 2.51289e-24)
(-0.0236552 0.0118476 0)
(-0.063678 0.0352351 0)
(-0.0121542 0.0248776 -1.84918e-24)
(-0.129971 0.107077 2.70462e-23)
(-0.15766 0.0741195 4.77124e-22)
(-0.0864154 0.136101 3.60181e-23)
(-0.107473 0.116585 -1.33049e-23)
(-0.154482 0.0625079 -8.02887e-22)
(-0.159254 0.0373116 -2.63915e-23)
(-0.136494 0.0285376 -7.20589e-22)
(-0.122896 0.0288297 -1.9255e-22)
(-0.146439 0.0477374 -6.42748e-22)
(-0.166185 0.0511755 8.39087e-22)
(-0.173056 0.0243192 -6.00131e-22)
(-0.180482 0.0268209 1.08106e-22)
(-0.112009 0.00669836 1.81301e-22)
(-0.165203 0.00739646 1.24483e-21)
(-0.109427 0.0054929 2.6264e-22)
(-0.13614 0.00295626 3.40122e-22)
(-0.0367934 0.064504 2.98975e-23)
(-0.103692 0.113231 0)
(-0.071821 0.0680839 -2.47483e-23)
(-0.101898 0.0915903 0)
(-0.0735659 0.138989 5.30032e-23)
(-0.0750826 0.14814 -1.36494e-22)
(-0.0193356 0.0863829 -2.97026e-25)
(-0.0501166 0.165073 2.19497e-22)
(-0.0697563 0.133914 -4.78455e-23)
(-0.0472377 0.157522 2.8696e-22)
(-0.0615883 0.103856 -5.7661e-23)
(-0.0975203 0.092255 -2.77348e-23)
(-0.108761 0.0662105 0)
(-0.0950859 0.0359793 1.22421e-22)
(-0.0232879 0.00244735 -2.99275e-22)
(-0.0654505 0.0141516 3.45276e-22)
(-0.160682 0.00870814 0)
(-0.1797 0.00904279 0)
(-0.188154 0.00221188 -8.63624e-22)
(-0.124778 0.000722829 -1.54643e-21)
(-0.181807 0.00212989 2.80046e-21)
(-0.102244 0.00153796 7.0878e-22)
(-0.144512 -0.000259783 7.39597e-22)
(-0.0349208 0.131599 -2.11309e-23)
(-0.044319 0.153545 2.05832e-23)
(-0.0339289 0.178051 -2.34689e-22)
(-0.00640122 0.11841 7.7467e-22)
(-0.0204736 0.18282 1.15942e-22)
(-0.0260374 0.150753 4.8213e-23)
(-0.0147843 0.168121 -3.00198e-22)
(-0.0335762 0.0890447 1.67358e-22)
(-0.0206275 0.131571 -1.1726e-21)
(-0.0144268 0.0642269 0)
(-0.00246974 0.0228894 0)
(-0.17057 -0.000968486 8.75412e-22)
(-0.187698 -0.000297648 -2.61179e-21)
(-0.127496 0.000711308 -9.19977e-22)
(-0.178974 0.000117988 2.91443e-21)
(-0.100093 -4.62366e-05 -1.15725e-21)
(-0.14537 -0.000447475 1.43859e-21)
(-0.0053316 0.16486 -6.92796e-22)
(-0.00649964 0.183311 5.23061e-22)
(0.00121424 0.128616 0)
(-0.00490256 0.160071 0)
(-0.00167916 0.187754 -1.05472e-21)
(-0.0039684 0.103313 8.01919e-22)
(-0.000375949 0.133321 0)
(-0.170372 0.00217803 8.74404e-22)
(-0.185659 0.00138084 1.97119e-22)
(-0.131546 0.00071673 1.261e-21)
(-0.178098 -0.00155617 -1.91413e-21)
(-0.183744 -0.00332103 -2.01379e-21)
(-0.096314 -0.000686802 -2.2691e-21)
(-0.136435 -0.000602647 9.84811e-22)
(0.00381278 0.168848 7.66844e-22)
(0.000864417 0.122813 -8.12008e-22)
(-0.000312873 0.1819 2.55929e-21)
(0.00247992 0.187933 -1.97769e-21)
(-0.000652056 0.105067 0)
(0.000628238 0.145949 0)
(-0.162256 -0.00625031 -1.4507e-21)
(-0.181817 -0.00877886 0)
(-0.180351 -0.0274042 1.76531e-21)
(-0.11426 -0.00652854 1.05928e-21)
(-0.170272 -0.0355155 -1.9664e-21)
(-0.171147 -0.0328445 -3.24544e-21)
(-0.154725 -0.00740703 1.9586e-21)
(-0.161114 -0.0241933 1.79043e-21)
(-0.0954445 -0.000730666 -2.94384e-22)
(-0.12267 0.000427519 0)
(-0.000571156 0.168866 -4.2742e-22)
(-0.00393654 0.13269 0)
(0.00113349 0.180566 0)
(-0.000381173 0.186288 3.26984e-22)
(-6.53998e-05 0.0990992 0)
(0.00167033 0.144381 0)
(-0.148557 -0.0653379 0)
(-0.161656 -0.0580363 -2.16169e-21)
(-0.162006 -0.0621488 2.91989e-21)
(-0.134401 -0.0871528 0)
(-0.0786413 -0.0163418 0)
(-0.127563 -0.0277462 -1.22211e-21)
(-0.146681 -0.0352253 -2.28637e-21)
(-0.134195 -0.0691442 2.80831e-21)
(-0.146138 -0.0820277 -1.47929e-22)
(-0.0647422 -0.03394 -7.03438e-22)
(-0.0248704 -0.011963 0)
(-0.0137936 -0.0257308 2.1484e-21)
(-0.136464 -0.0334215 7.37918e-22)
(-0.140749 -0.0566606 -1.83378e-21)
(-0.0868049 -0.00147798 -1.29961e-21)
(-0.118176 -0.0266898 1.85713e-21)
(-0.117374 -0.0719249 8.61228e-22)
(-0.121007 -0.0882627 0)
(-0.104338 -0.102064 1.57276e-21)
(-0.0302062 0.234868 3.19097e-24)
(-0.128206 0.299476 -2.98934e-21)
(-0.141198 0.223799 3.13432e-21)
(0.118559 0.18675 -2.51993e-21)
(-0.0154482 0.171942 1.44027e-21)
(-0.0177912 0.13917 -1.74392e-21)
(-0.0481474 0.207904 -8.93423e-22)
(-0.0168487 0.18393 -3.07494e-21)
(0.000772225 0.176793 -7.87756e-22)
(-0.00789494 0.181156 3.18218e-21)
(0.00109408 0.0941211 0)
(0.00223921 0.134322 2.89813e-22)
(-0.062643 0.199763 4.23154e-21)
(-0.0997119 0.192638 -1.31935e-21)
(-0.107515 -0.119143 4.15215e-21)
(-0.128708 -0.104838 2.47839e-21)
(-0.125948 -0.106703 -3.33254e-21)
(-0.0773382 -0.0621135 5.33918e-22)
(-0.0964925 -0.120787 0)
(-0.102257 -0.0866743 2.48066e-22)
(-0.0382311 -0.0629145 -3.00289e-21)
(-0.0847155 -0.141328 -5.84349e-21)
(-0.0226874 -0.0888553 0)
(-0.0698188 -0.142163 2.05126e-21)
(-0.0496981 -0.159877 0)
(-0.0788889 -0.0274548 3.18105e-21)
(-0.0957372 -0.0620431 0)
(-0.060227 -0.106026 -4.67064e-21)
(-0.0861513 -0.0946104 1.13909e-21)
(-0.0172814 -0.00145208 1.35887e-21)
(-0.0507179 -0.00948863 -5.47204e-21)
(-0.105473 0.238428 -5.34551e-22)
(-0.12777 0.202606 0)
(0.00996873 0.19491 1.96852e-21)
(-0.135432 0.109096 -1.29744e-21)
(0.264744 0.0573684 9.57983e-22)
(-0.027338 0.180236 2.0169e-21)
(-0.0485792 0.178454 -2.27141e-21)
(-0.00850205 0.150345 -1.66484e-21)
(-0.0187025 0.153292 2.87487e-21)
(0.000855191 0.091366 1.34303e-21)
(-0.00632765 0.11825 -8.88802e-22)
(-0.155137 0.0189375 0)
(-0.108126 0.126066 -1.91579e-21)
(-0.139496 0.0884231 1.08994e-22)
(-0.146374 0.0485641 3.14564e-21)
(-0.0530456 0.137954 -1.22836e-21)
(-0.0850143 0.113884 1.19671e-21)
(-0.0634074 -0.147587 2.24965e-22)
(-0.0629127 -0.162583 5.0555e-22)
(-0.0471736 -0.172965 0)
(-0.0377268 -0.127868 -2.84041e-22)
(-0.00865046 -0.129638 1.90402e-23)
(-0.0279924 -0.178655 -3.58783e-21)
(-0.0307176 -0.15478 1.83876e-21)
(-0.0212031 -0.167532 -2.03165e-21)
(-0.0332063 -0.0926011 3.19133e-21)
(-0.0244237 -0.132064 -2.66099e-21)
(-0.0126076 -0.0609809 0)
(-0.00220213 -0.0213956 0)
(-0.053036 0.0573295 -4.54548e-22)
(-0.113847 0.0269353 1.63242e-21)
(0.10524 0.060736 -6.68007e-22)
(0.375435 0.017654 1.67355e-21)
(-0.123026 0.0162638 0)
(-0.172589 0.0106468 0)
(-0.0163147 0.119144 -2.08482e-21)
(-0.0331345 0.114454 0)
(-0.163604 -0.00422838 0)
(-0.160859 0.0021572 0)
(-0.00694397 0.0859409 0)
(-0.00615677 0.0972032 -9.4926e-22)
(-0.123096 0.00538819 0)
(-0.121488 0.0338165 -3.18305e-21)
(-0.0434883 0.0642279 0)
(-0.0821259 0.0683753 0)
(-0.0965845 0.0406555 2.69349e-21)
(-0.150185 -0.0106033 5.67794e-22)
(-0.0119624 -0.182385 2.51299e-21)
(-0.0113693 -0.167611 0)
(0.00025254 -0.135171 -4.01938e-23)
(-0.00728711 -0.159285 0)
(-0.00351143 -0.186128 0)
(-0.00453396 -0.102097 -3.52123e-21)
(-0.00281867 -0.132137 3.21293e-21)
(-0.0441338 0.0167194 0)
(0.124821 0.0123439 -1.38809e-21)
(0.375682 0.00255082 0)
(-0.182738 0.00432325 -4.6845e-22)
(-0.153128 0.00878666 1.18195e-23)
(-0.142652 0.00537139 -2.50515e-22)
(-0.172598 0.00599817 1.30656e-22)
(-0.00425879 0.0314612 5.4859e-21)
(-0.0320781 0.0259279 -1.03255e-21)
(-0.0693696 0.0123259 -2.11792e-21)
(-0.0823781 -0.0142294 0)
(-0.0825978 -0.00359677 0)
(0.000298112 0.00911706 1.72036e-21)
(-2.32873e-05 0.0229889 -6.50313e-21)
(-0.0635002 -0.00552346 0)
(0.00202318 -0.175045 -5.44288e-22)
(0.000380854 -0.13496 3.98484e-23)
(-0.00164379 -0.179625 -4.63202e-21)
(0.00125186 -0.187515 4.30827e-21)
(-0.00146789 -0.0997859 0)
(0.000229458 -0.143148 -5.35958e-22)
(0.0990851 -0.00268337 0)
(0.363307 -0.00154232 0)
(-0.166806 -0.00193044 4.27482e-22)
(-0.0928029 -0.00224088 -3.64896e-22)
(-0.148398 0.000225627 3.31494e-22)
(-0.182013 0.00674319 -5.56585e-22)
(-0.0244865 -0.000849102 0)
(0.131223 -0.186401 -5.76533e-21)
(-0.150137 -0.226961 9.82749e-21)
(-0.00061917 -0.172996 1.67242e-22)
(-0.00342855 -0.137468 0)
(0.000954997 -0.179212 3.94843e-21)
(-0.000664083 -0.186336 -2.87809e-21)
(0.000625325 -0.0970313 0)
(0.00241486 -0.148316 -1.02843e-21)
(0.0909742 -0.000121748 -3.84591e-23)
(0.357836 -0.00326456 -2.0955e-21)
(-0.189029 -0.00314943 -2.14091e-21)
(-0.101902 -0.000178075 -6.25796e-22)
(-0.151644 0.00168136 5.32866e-22)
(-0.189765 -0.00175636 0)
(0.267638 -0.0533248 -6.96173e-21)
(0.026375 -0.166608 -6.40574e-21)
(-0.0150108 -0.17331 0)
(-0.0192395 -0.143801 0)
(0.13136 -0.00836362 -3.06327e-21)
(0.383159 -0.0157355 2.61087e-21)
(0.128932 -0.0594225 1.15831e-20)
(-0.054055 -0.212804 0)
(-0.112198 -0.219808 9.19459e-21)
(-0.0350493 -0.250745 1.60225e-21)
(-0.147577 -0.306094 -2.59642e-21)
(-0.0665419 -0.19553 -1.80293e-23)
(-0.0153808 -0.183516 -3.83789e-21)
(0.000210839 -0.178009 1.65009e-21)
(-0.00636366 -0.180808 6.07316e-21)
(0.00117436 -0.10671 -3.64512e-21)
(0.000157406 -0.145247 2.36684e-21)
(-0.0479231 -0.0138279 2.45577e-21)
(-0.169386 0.00266195 3.73794e-21)
(-0.164817 -0.00565775 -3.37346e-21)
(-0.143887 7.09755e-05 2.48789e-22)
(-0.17428 -0.00025081 0)
(-0.0616579 -0.0658532 -3.84541e-21)
(-0.147687 -0.173653 -2.63116e-21)
(-0.0446742 -0.175857 -6.38867e-21)
(-0.0270799 -0.177147 7.55008e-22)
(-0.126367 -0.015068 0)
(-0.114882 -0.0286237 -9.97053e-22)
(-0.130302 -0.173505 -6.7451e-21)
(-0.0889215 -0.17828 8.70801e-21)
(-0.0734768 -0.131083 6.39505e-21)
(-0.0510685 -0.140294 0)
(-0.00744753 -0.14366 0)
(-0.0175691 -0.147972 -2.51028e-21)
(-0.00140212 -0.0992728 0)
(-0.00755868 -0.121872 0)
(-0.186499 0.000122445 2.82186e-21)
(-0.177044 -0.00531061 -5.44351e-21)
(-0.13661 0.00214882 -2.61903e-22)
(-0.168416 -0.00295497 -1.59654e-21)
(-0.155219 -0.0198178 5.1663e-21)
(-0.147633 -0.0742863 -4.46188e-21)
(-0.0183621 -0.117646 1.505e-21)
(-0.0341607 -0.116469 3.62302e-21)
(-0.173425 0.00442307 4.4616e-21)
(-0.155501 0.00194402 -1.78856e-22)
(-0.0429304 -0.0654202 -8.00968e-21)
(-0.076911 -0.07863 3.85607e-22)
(-0.10952 -0.0626778 1.41767e-21)
(-0.00735679 -0.0840845 0)
(-0.00803451 -0.0946607 -2.74651e-21)
(-0.137211 -0.00455769 -2.16306e-21)
(-0.1579 0.00805756 1.53812e-21)
(-0.0879547 0.0166496 1.42689e-21)
(-0.0065866 -0.0284996 0)
(-0.0340103 -0.0216135 3.56601e-21)
(-0.10234 0.0107571 1.60376e-22)
(-0.0931728 -0.00935877 0)
(0.000154809 -0.00962552 0)
(-0.0010956 -0.0231263 0)
(-0.0612008 0.00665195 -3.74765e-21)
(-0.0225742 0.00111859 2.94955e-21)
)
;

boundaryField
{
    movingWall
    {
        type            fixedValue;
        value           uniform (1 0 0);
    }
    fixedWalls
    {
        type            noSlip;
    }
    frontAndBack
    {
        type            empty;
    }
    defaultFaces
    {
        type            empty;
    }
}


// ************************************************************************* //
