/*--------------------------------*- C++ -*----------------------------------*\
  =========                 |
  \\      /  F ield         | OpenFOAM: The Open Source CFD Toolbox
   \\    /   O peration     | Website:  https://openfoam.org
    \\  /    A nd           | Version:  8
     \\/     M anipulation  |
\*---------------------------------------------------------------------------*/
FoamFile
{
    version     2.0;
    format      ascii;
    class       surfaceScalarField;
    location    "0.047";
    object      phi;
}
// * * * * * * * * * * * * * * * * * * * * * * * * * * * * * * * * * * * * * //

dimensions      [0 3 -1 0 0 0 0];

internalField   nonuniform List<scalar> 
1107
(
0.000315988
-0.000643388
0.000633495
-0.000306095
0.000616968
-0.00030098
-2.96863e-05
0.000646654
0.000304964
0.000538556
-0.000106656
-0.000736864
-0.000968716
0.000630292
-9.7652e-05
0.000701461
0.000286064
-5.36028e-05
-1.49164e-05
-3.72697e-05
0.000683924
-3.30519e-05
1.4347e-05
-8.79507e-05
0.000180754
-0.000148834
-6.49717e-05
0.000300274
-0.000856385
-0.00126768
0.000599237
-0.000207452
0.000740092
0.000760954
-9.67627e-05
4.17029e-05
0.00081488
-9.56296e-05
3.58083e-06
-4.28366e-05
-1.13356e-05
0.000725627
0.000853015
2.99153e-05
-6.80497e-05
6.44734e-05
-0.000126751
-8.65561e-05
2.51489e-05
-4.86263e-05
0.000227394
-0.000140757
-0.000213388
0.00027785
-0.000115427
0.000296555
-0.00087509
-0.00151059
0.000539468
-0.000366466
0.000758251
0.000828735
-0.000185406
0.000899161
-0.000166055
5.21561e-06
-2.29033e-05
-6.11998e-06
-2.22686e-05
0.000864977
1.03064e-05
0.000755542
0.000946058
-0.000114947
0.000963319
-3.953e-05
0.000951689
-2.39058e-05
3.55362e-05
3.54025e-05
-7.27512e-05
-4.92074e-05
1.36214e-05
-2.68451e-05
-8.24019e-05
-0.000131107
0.000322161
-0.000215167
-0.000320383
0.000397171
-0.000190436
0.000306687
-0.000784606
0.000459855
-0.00166376
-0.000570293
0.000743294
0.000880805
-0.00030796
0.000968318
-0.000253567
2.99785e-06
-1.22797e-05
-3.12213e-06
8.81342e-05
0.000916747
-5.31921e-05
0.000853392
-1.23209e-05
0.000765849
0.0010259
-0.000172532
0.0010502
-6.38278e-05
0.00103934
4.63963e-05
0.000999154
0.000128321
-0.000118443
0.000932615
0.000184982
5.74512e-05
-0.000104201
-3.56518e-05
2.76043e-05
-1.93605e-05
1.0414e-05
-9.65485e-06
-0.000129769
-0.000216505
-6.19205e-05
-0.000172049
0.000691132
-0.00080157
0.0009022
-0.000466866
0.00101069
-0.000362057
2.20821e-06
-4.07392e-06
-9.13924e-07
0.000865538
-6.72341e-05
0.000823868
-2.36684e-05
0.000753528
0.000822724
-0.000147328
0.000257219
0.00107924
-0.000241085
0.00111023
-9.48171e-05
0.00110188
5.47497e-05
0.00105781
0.000172386
0.000974147
0.000268648
4.56527e-05
-3.06111e-05
-7.69621e-05
2.44427e-05
-1.44418e-05
1.1469e-05
-6.38676e-06
4.27984e-06
-2.46573e-06
0.000877063
-0.000652797
0.00100493
-0.000489924
8.82698e-07
-6.76776e-07
-3.12231e-08
0.000334022
0.000669946
-0.000181244
0.000790539
-7.23289e-05
0.000785564
-2.89295e-05
0.000729859
0.000827003
0.000404363
0.000622547
0.000538478
0.000388235
-0.00129498
0.0015293
0.00108393
-0.000320084
0.00112363
-0.000134518
0.00112238
5.60002e-05
0.00107703
0.000217738
0.000974646
0.000371031
-3.58717e-05
-5.57973e-05
6.10579e-05
-1.92696e-05
-3.10439e-05
-9.09354e-06
-1.65628e-05
-3.38054e-06
-8.17874e-06
-6.70762e-07
-3.38655e-06
-7.01981e-07
0.000988151
0.000345278
-0.000945194
0.000371482
-0.00099652
0.000688015
-7.872e-05
0.000739071
-2.58365e-05
0.00070093
0.000793087
0.000585921
0.000547329
0.000784236
0.000411763
0.00166486
0.000483129
0.000916784
-5.78575e-05
-9.54007e-05
9.7461e-05
-3.13195e-05
-5.75819e-05
-1.47817e-05
-3.31006e-05
-5.47187e-06
-1.74886e-05
-1.09547e-06
-7.76295e-06
-1.79744e-06
0.00010169
0.000300423
-5.6836e-05
0.000227695
-0.000801406
0.000357797
-0.000666303
0.000680863
-2.05123e-05
0.000675093
0.000415514
0.000169306
-4.45661e-05
-0.000125269
7.44344e-05
-2.44973e-05
-7.76507e-05
-1.17877e-05
-4.58102e-05
-4.48437e-06
-2.47919e-05
-9.72269e-07
-1.1275e-05
-2.76971e-06
0.000246662
0.000202647
-0.000148885
0.000201193
-3.03343e-05
0.000136196
-0.000579805
0.000342991
-0.00032843
0.000654581
0.000297223
0.000364952
-1.46945e-05
-0.000134094
2.352e-05
-8.32958e-06
-8.40156e-05
-4.12327e-06
-5.00165e-05
-1.6545e-06
-2.72607e-05
-4.03901e-07
-1.25256e-05
-3.17361e-06
0.00015005
0.000136163
-8.35668e-05
0.000128904
-7.65953e-05
0.000120914
-1.5052e-05
6.99927e-05
-0.000306807
0.000326151
0.000201413
0.00024586
1.40398e-05
-0.000122411
-2.57233e-05
7.13605e-06
-7.71119e-05
3.18064e-06
-4.60611e-05
1.12243e-06
-2.52025e-05
1.8057e-07
-1.15838e-05
-2.99305e-06
0.000129777
7.86597e-05
-7.22733e-05
8.57913e-05
-4.04545e-05
7.40923e-05
-2.97739e-05
5.93166e-05
-4.37586e-06
1.93442e-05
0.000119598
0.000211592
-8.90256e-05
5.97813e-05
0.000148842
1.6254e-05
-3.58055e-05
-0.000102859
7.59616e-06
-6.8454e-05
3.24809e-06
-4.1713e-05
1.17201e-06
-2.31264e-05
2.25695e-07
-1.06375e-05
-2.76735e-06
3.83713e-05
-4.87372e-05
4.84813e-05
-3.49633e-05
4.8949e-05
-1.53112e-05
3.53807e-05
-5.83809e-06
1.49683e-05
-5.20725e-05
2.39505e-05
8.79032e-05
-3.18098e-05
5.75646e-05
-6.74678e-05
-1.25294e-05
-4.24067e-05
-2.80914e-06
-2.03577e-05
-5.57649e-06
1.44904e-05
-2.81916e-05
2.30535e-05
-2.33093e-05
2.71627e-05
-1.31771e-05
2.31519e-05
-3.08245e-06
9.13023e-06
4.98105e-06
-2.5698e-05
4.46675e-05
-2.07823e-06
7.02094e-06
7.22285e-06
-1.21656e-05
-1.29468e-05
5.58943e-05
-6.33052e-05
-1.85233e-05
-1.84845e-06
-8.19124e-06
1.50207e-05
2.37033e-06
-1.35779e-05
8.20482e-06
-1.3343e-05
1.26123e-05
-8.75883e-06
1.26879e-05
-2.71303e-06
6.04778e-06
1.5285e-06
4.33664e-06
-7.94337e-06
-5.04482e-07
3.44421e-06
4.0812e-06
-1.88076e-06
8.43813e-06
-1.67786e-05
1.02212e-05
-3.03087e-06
-3.61082e-07
1.5435e-06
-1.73658e-06
-4.08431e-06
9.24221e-07
-6.29725e-06
4.23919e-06
-4.96987e-06
5.77475e-06
-1.84568e-06
3.33475e-06
3.44903e-06
1.68054e-06
-3.60107e-06
1.64959e-06
2.18261e-06
1.12187e-07
1.45126e-06
-7.4986e-07
3.03301e-06
6.15499e-06
-2.67043e-06
4.7938e-06
-2.37949e-05
2.16716e-05
-2.12983e-06
2.12338e-06
-3.02442e-06
-2.19055e-06
9.29063e-08
-1.38032e-06
-1.77978e-06
2.53087e-07
-2.31115e-06
1.84298e-06
-1.0381e-06
1.48907e-06
3.78271e-06
-3.38172e-07
4.48422e-09
2.62179e-06
7.0836e-07
1.32021e-06
9.74575e-07
2.38339e-07
4.63064e-07
-1.99909e-07
5.62491e-07
-5.79997e-07
5.37382e-06
-1.19107e-06
1.7073e-06
-2.64605e-06
-1.37843e-06
1.31129e-06
-1.45187e-06
1.64462e-07
-9.18697e-07
-6.07991e-07
1.10806e-08
-4.79251e-07
4.50971e-07
2.6621e-06
-2.24186e-06
3.36246e-06
2.61526e-06
-3.31679e-07
1.7748e-06
2.5377e-07
8.72297e-07
3.40615e-07
1.80577e-07
8.25794e-08
-1.7505e-08
-1.65312e-06
-9.31802e-07
1.39385e-06
-6.49402e-07
9.78284e-07
-8.26661e-07
6.8608e-07
-8.56967e-07
1.02733e-07
-4.86188e-07
-1.10721e-07
-2.82801e-08
1.47858e-06
-2.00247e-06
3.186e-06
1.69912e-06
-1.32572e-06
1.6586e-06
-2.15485e-07
1.06049e-06
6.55718e-08
4.56939e-07
6.42521e-08
6.50743e-08
-2.41877e-06
-1.36627e-06
2.13193e-06
-1.02629e-06
-5.54904e-07
-3.31421e-07
4.83047e-07
-4.47197e-07
2.76312e-07
-4.15729e-07
3.22747e-08
-1.39001e-07
2.11748e-06
1.2529e-06
-1.8918e-06
8.23302e-07
-1.12666e-06
1.0019e-06
-6.69018e-07
9.44611e-07
-9.96022e-08
5.17202e-07
5.30753e-09
1.29326e-07
-2.87437e-06
-7.3861e-07
1.19421e-06
-1.6005e-06
-7.92049e-07
-5.98863e-07
-2.87458e-07
-1.50343e-07
1.86197e-07
-2.00554e-07
6.11392e-08
-1.06726e-07
-2.77866e-06
1.82343e-07
-2.7805e-07
1.26614e-06
-1.92732e-06
1.32882e-06
7.47385e-07
4.25875e-07
-5.50632e-07
5.36131e-07
-2.60539e-07
4.43806e-07
-2.62065e-08
1.34632e-07
-1.91975e-06
-4.19351e-07
-9.93547e-07
-3.97363e-07
-3.1971e-07
-1.18088e-07
-5.28592e-08
3.85046e-08
-4.55853e-08
-1.84805e-06
1.10642e-07
7.46901e-07
7.85589e-07
3.87672e-07
1.96452e-07
-2.10953e-07
2.38539e-07
-5.52729e-08
1.08426e-07
-1.20438e-06
-2.08517e-07
-5.60671e-07
-1.56401e-07
-1.43592e-07
-2.73527e-08
-7.0801e-09
-1.15246e-06
5.87228e-08
3.80029e-07
4.24852e-07
1.59272e-07
7.0757e-08
-4.31721e-08
5.31532e-08
-6.86359e-07
-8.28296e-08
-2.64908e-07
-3.50853e-08
-3.4433e-08
-6.53174e-07
2.55377e-08
1.51706e-07
1.93006e-07
3.70225e-08
9.9819e-09
-3.28353e-07
-1.93848e-08
-6.95183e-08
-3.09904e-07
7.08877e-09
3.4809e-08
4.70049e-08
-8.89031e-08
-8.18138e-08
0.000597168
-0.00138177
-0.00106659
0.00032336
-0.000539865
0.000860635
-0.000537275
0.000540252
0.00130421
-0.000763954
0.00111377
-0.000268004
0.00156997
-0.00183798
0.000503382
-0.000298188
-0.00139471
0.00063076
0.00013942
-0.00031147
-0.000400445
4.44329e-05
-0.000121395
-0.000267037
0.000331702
-0.000732146
0.00117693
-0.000845229
0.000639656
-0.000755058
0.00207374
-0.00144298
0.000235764
0.00130935
-0.00107359
0.00101117
0.000358369
0.00101882
-0.00177387
-0.000424165
-6.03371e-05
0.000230298
-0.000290635
-3.67392e-05
-0.000768886
-6.74976e-05
-0.000701388
0.00137323
-0.00144073
0.000528005
-0.00124587
0.00142725
-0.00185142
0.000353664
0.000886455
-0.00053279
-0.00124482
0.0007549
-0.00137804
0.00105795
-0.000623137
0.00098859
-0.00223446
-0.000862829
0.000861009
0.000803852
0.00177779
-0.000412392
0.000998313
-0.00149217
0.00135765
-0.000434216
-0.00116094
0.000748543
-0.000789904
-0.00132329
0.00137929
3.43621e-05
-0.00129185
0.000501942
-0.00107411
0.00030518
-0.000193174
0.000132694
-0.000325868
-0.000568694
0.000280759
-0.000849453
-0.00115997
0.000201497
-0.00136147
-0.00203296
0.00114146
-0.00200428
-0.000608665
-1.44721e-05
-0.000664782
0.000230566
-0.000679254
-2.66525e-05
-0.00200631
-0.00203094
-0.000900561
0.00170441
-0.000116325
0.000881988
0.0002826
0.00149519
0.00198701
0.0016645
-2.47833e-05
0.000906772
-0.00101389
0.000989103
-0.000265342
-0.000582916
0.000617278
-0.000352349
-0.000967968
0.000702626
-0.000466026
-0.000794892
0.000328866
-0.000489713
0.000127565
-0.000251433
8.09947e-05
-0.000332428
-0.000768458
3.44846e-05
-0.000802943
-0.00132699
-0.000351663
-0.000975323
-0.00235797
0.000887335
-0.00123968
0.000208081
-0.00182286
-0.00142848
0.000188799
0.000921481
-0.00274434
-0.00143649
0.00054072
0.00144629
0.00144749
-0.00100775
0.0013727
0.000656748
0.00210304
0.000101551
0.00134594
0.00109065
4.75928e-05
0.00104306
0.000750219
0.000222755
0.000527463
0.000551621
0.000679186
-0.000749297
-0.000308908
9.81317e-06
-0.000318721
-0.00079313
-0.000349542
-0.000443587
-0.00132487
-0.000425086
-0.000899779
-0.00186158
0.00201518
-0.00182638
-0.000729153
0.0017334
-0.0024827
-9.29814e-05
0.00128803
-0.00201719
-0.000573545
-0.000615621
0.000861481
0.000757083
-0.00120986
0.00196694
0.000893182
0.00223912
0.0014094
0.000829719
0.00245246
0.00297993
-0.000633223
0.00205687
-0.00142364
0.00311592
-0.000135996
-0.000344445
0.000564581
-0.00113813
-9.41358e-05
-0.000250309
-0.000537723
-0.000119302
-0.000418421
-0.00101908
-0.0004545
0.00182098
0.000235885
-0.001728
-0.000289187
-0.00073085
0.000966734
-0.000975658
-0.000162468
0.000647572
-0.000936759
-0.000328086
-0.00117566
0.000444814
-0.000324099
0.000535692
0.000537382
2.73128e-05
-0.000603492
0.000576179
-0.00114835
-0.000122596
0.000348031
-0.000225435
-0.000726088
-0.000699936
0.00123732
0.00126701
0.00209673
-0.000341599
-0.000806752
-0.00176524
0.0012163
0.000880425
0.0010803
-0.000684937
-0.000286114
0.000394359
-0.000556827
-0.000675487
0.000220987
-0.000281128
-0.00012578
-0.000160334
-0.000544201
-0.000323214
-0.0012582
0.000321445
-0.000291469
-0.000606912
0.000315442
-0.000162098
-0.000502289
-5.45378e-05
0.000830375
-0.000508931
-0.000674408
0.00051231
-9.82284e-05
0.000367647
-1.96169e-05
0.000269419
-0.000218713
0.000199096
1.70597e-05
0.000144092
-0.000161152
-0.000201653
-0.000427088
-0.000258244
-0.000168844
-0.000112424
0.000261267
0.000423267
-0.000148102
0.000571369
0.00108922
0.000315915
-0.000574158
-0.000410173
-0.00121693
0.000469215
0.00062
-0.000664703
-0.000552222
0.00134964
-2.15292e-05
0.000109432
0.000239738
0.000113749
-0.000274083
-1.08894e-05
-0.000465401
0.000184273
-0.000519939
-0.000100883
-0.0001732
-0.000424097
-0.000239824
0.000482175
3.01347e-05
-0.000797618
0.000288687
-0.000530762
1.08226e-05
-0.000242075
-0.000299763
0.000329897
-0.000345388
4.56257e-05
-7.59693e-05
-0.000237877
0.000161908
-3.87813e-05
-0.000131477
9.26957e-05
1.26155e-05
5.47453e-06
2.4271e-05
-2.97455e-05
1.26974e-05
-2.395e-05
4.8221e-05
6.94949e-05
-9.3445e-05
8.21104e-05
-4.67186e-05
-4.67263e-05
-0.000207871
-2.41119e-05
-5.63365e-06
-7.08382e-05
-1.77992e-05
-0.000101801
-0.000106069
-0.000270645
-0.000103676
-0.000166969
-0.000677835
-9.37523e-05
0.00033349
0.000477617
0.00109762
-0.00044174
-0.000236095
0.000993961
0.000103656
1.84577e-05
2.62098e-05
0.00012789
4.61731e-05
8.1717e-05
0.000379663
5.39803e-05
-0.00022718
1.34875e-05
-7.32362e-05
-0.000153944
-0.00031306
-0.000302238
-0.00023439
-6.78479e-05
-0.000476464
-0.000146567
0.00019128
-2.93724e-05
-0.000236906
9.03388e-05
5.3226e-05
2.88844e-05
0.000145922
0.000116549
4.08023e-05
7.41873e-06
6.96867e-05
1.76399e-05
-4.88412e-05
-2.19971e-05
-0.000154911
-2.28862e-05
5.08696e-06
-4.48832e-05
-2.8564e-06
1.49942e-05
2.65806e-08
4.12039e-05
-0.000102608
-5.23027e-05
-0.000269577
-0.000147751
-0.000121825
-0.000383847
0.000340338
3.93246e-05
0.000443994
6.01472e-05
9.10345e-06
3.21005e-05
9.08205e-05
0.000130145
9.67321e-05
-2.70454e-05
0.000213281
-0.000235772
8.18285e-05
-0.00030362
-1.85233e-05
-5.37382e-06
-7.91875e-06
7.94532e-06
-6.37522e-06
-4.03519e-05
-4.5313e-06
-9.26545e-05
-1.2578e-05
9.72165e-06
-1.71093e-05
6.12056e-06
1.11497e-05
-3.20438e-06
4.32502e-05
-7.44798e-05
-1.81748e-05
-0.000196305
-0.000136158
3.30315e-05
1.02187e-05
0.000163177
2.70188e-05
-8.17113e-06
4.96676e-06
4.97683e-06
-8.00123e-06
-1.39838e-06
-9.5695e-06
-7.51934e-07
-7.24929e-06
-3.39797e-06
-3.00584e-05
1.2949e-05
-4.82331e-05
-1.79846e-06
7.91902e-06
1.11506e-05
7.92349e-06
1.29337e-05
-7.96695e-06
2.31524e-05
3.04763e-05
-7.32386e-06
-5.74951e-05
9.26205e-06
-3.95397e-07
-9.1741e-06
-8.36234e-06
-2.46326e-06
-4.78603e-06
-1.16374e-05
-2.0041e-06
-6.79014e-06
2.69428e-06
8.45637e-06
1.19563e-05
-4.16721e-06
7.52967e-06
3.75628e-06
1.22127e-05
-2.34866e-06
-6.01369e-06
-9.67249e-06
-1.08982e-05
1.22568e-06
1.05818e-06
8.12744e-07
6.71693e-06
3.99875e-06
-7.95762e-06
-3.67974e-06
-1.39713e-05
-4.6582e-06
-8.33793e-06
5.07064e-07
6.20986e-06
1.27197e-05
1.37779e-05
-1.26525e-05
-1.3188e-06
1.14268e-05
2.35107e-06
2.10694e-06
8.31681e-06
-7.14372e-06
-8.46251e-06
-8.74057e-06
6.38949e-06
)
;

boundaryField
{
    movingWall
    {
        type            calculated;
        value           uniform 0;
    }
    fixedWalls
    {
        type            calculated;
        value           uniform 0;
    }
    frontAndBack
    {
        type            empty;
        value           nonuniform List<scalar> 0();
    }
    defaultFaces
    {
        type            empty;
        value           nonuniform List<scalar> 0();
    }
}


// ************************************************************************* //
