/*--------------------------------*- C++ -*----------------------------------*\
  =========                 |
  \\      /  F ield         | OpenFOAM: The Open Source CFD Toolbox
   \\    /   O peration     | Website:  https://openfoam.org
    \\  /    A nd           | Version:  8
     \\/     M anipulation  |
\*---------------------------------------------------------------------------*/
FoamFile
{
    version     2.0;
    format      ascii;
    class       volVectorField;
    location    "0.047";
    object      U;
}
// * * * * * * * * * * * * * * * * * * * * * * * * * * * * * * * * * * * * * //

dimensions      [0 1 -1 0 0 0 0];

internalField   nonuniform List<vector> 
656
(
(0.743373 0.0565317 -9.65367e-25)
(0.927889 0.0140692 1.86663e-24)
(0.954789 -0.00127367 0)
(-0.0910748 0.118995 2.39998e-23)
(0.556744 0.0977247 1.12099e-23)
(0.841242 0.000939676 0)
(-0.0571797 0.0672287 -4.93916e-23)
(-0.0145962 0.0188463 9.85095e-24)
(0.968225 -0.000150823 0)
(-0.000504597 0.138603 -2.37839e-24)
(-0.00304963 0.193133 -7.83542e-23)
(-0.117738 0.172055 0)
(0.376009 0.139834 1.00526e-23)
(0.715018 0.00930614 0)
(0.890981 0.00127398 -1.70654e-22)
(0.906543 0.000582042 4.77859e-23)
(0.00104049 0.0823446 9.70682e-24)
(0.00137432 0.0267222 0)
(0.971845 -7.64669e-05 -3.43327e-23)
(0.913616 0.000297024 -1.43709e-22)
(-0.0123884 0.0928737 7.7115e-23)
(-0.00523405 0.062873 0)
(-0.0239222 0.125113 1.33372e-24)
(-0.00789636 0.242545 1.53991e-22)
(-0.136115 0.223439 -1.67667e-22)
(0.210345 0.180419 -2.26588e-23)
(0.577672 0.0245853 0)
(0.800685 0.00637467 2.66429e-22)
(0.82945 0.00302837 -8.91554e-23)
(-0.00144232 0.0356653 0)
(-0.000151549 0.0114451 0)
(0.916915 0.000156949 5.1346e-23)
(0.973359 -4.72115e-05 -3.66582e-23)
(0.842876 0.00161231 1.95803e-22)
(0.849298 0.000805768 -5.18082e-23)
(0.853876 6.1133e-05 -1.08896e-22)
(-0.00677949 0.0608921 -1.05392e-22)
(-0.00280699 0.0409259 1.70725e-23)
(-0.013792 0.0825103 -1.88344e-22)
(-0.0408484 0.15856 -1.57709e-22)
(-0.0167107 0.282819 1.66511e-22)
(-0.143742 0.269548 -4.7785e-24)
(0.0686504 0.217915 4.55146e-22)
(0.433176 0.0474086 0)
(0.696534 0.0162264 0)
(0.739314 0.00801699 -3.69795e-22)
(-0.000821625 0.0230291 -5.40299e-24)
(-0.00012883 0.00732346 0)
(0.854784 -0.000882306 1.20162e-22)
(0.919366 2.78055e-05 -2.78131e-23)
(0.973985 -2.04583e-05 4.92926e-24)
(0.759645 0.00434308 0)
(0.769575 0.00217421 0)
(0.77661 0.000146121 -1.06674e-22)
(0.778149 -0.00237053 4.59765e-22)
(0.76342 -0.00603418 0)
(-0.0103745 0.0366079 2.00156e-22)
(-0.00502155 0.0257435 2.95177e-22)
(-0.0020283 0.0165203 -2.87547e-22)
(-0.0250257 0.1048 -1.85281e-22)
(-0.0193438 0.0489389 5.84846e-22)
(0.286799 0.0796609 -1.32801e-22)
(0.578433 0.0319742 1.75127e-22)
(0.635106 0.0165605 -5.20742e-22)
(-0.000553619 0.00884942 4.53765e-23)
(-6.71358e-05 0.00256247 6.09123e-23)
(0.844724 -0.00223851 -2.54699e-22)
(0.919912 -0.000145994 8.54605e-23)
(0.974659 1.28195e-05 5.47918e-24)
(0.72663 -0.0151864 -1.16692e-23)
(0.66252 0.00909444 0)
(0.676197 0.00464176 1.9332e-22)
(0.686069 0.000374098 2.04146e-22)
(0.688643 -0.00481078 -8.82444e-22)
(0.669424 -0.0125256 2.27313e-22)
(-0.00839927 0.0139382 8.88536e-22)
(-0.00405403 0.00914148 -6.82886e-24)
(-0.00182793 0.00550797 0)
(-0.000643727 0.00295508 1.05784e-22)
(0.447735 0.055804 0)
(0.516827 0.0303322 6.66076e-22)
(-8.94901e-05 0.0012745 -1.00148e-22)
(5.5315e-05 0.000241722 -3.08667e-23)
(0.604703 -0.0240811 4.71863e-22)
(0.820171 -0.00592119 1.49707e-22)
(0.91441 -0.000373695 0)
(0.975003 4.21229e-05 -5.28422e-23)
(0.619778 -0.0302074 -2.88812e-22)
(0.468089 -0.0472183 7.26245e-22)
(0.251439 -0.190744 -8.79144e-22)
(0.550605 0.0170347 0)
(0.567818 0.00870675 4.66322e-23)
(0.580833 0.000969675 -1.45207e-22)
(0.585119 -0.00871201 5.11949e-22)
(0.562206 -0.0231498 -8.69743e-22)
(-0.0147951 0.00626453 3.7383e-22)
(-0.00925125 0.00306727 -3.98909e-22)
(-0.00537577 0.00139831 -1.97759e-22)
(-0.00279905 0.000480524 3.91404e-22)
(-0.00116734 4.39299e-05 4.71365e-23)
(-0.000203607 -6.20314e-05 -2.85015e-23)
(-0.136741 -0.250207 5.90068e-23)
(0.411919 -0.14796 -6.13874e-23)
(0.732727 -0.00901284 -7.95917e-22)
(0.901139 -0.0011233 0)
(0.973724 0.000109813 0)
(0.499462 -0.0539049 5.52205e-22)
(0.325349 -0.0809749 -2.77371e-22)
(0.106224 -0.230008 1.02589e-22)
(-0.141435 -0.298144 1.3843e-21)
(-0.0465807 0.011251 0)
(-0.0340239 0.00583811 1.86897e-22)
(-0.0235952 0.00285752 -6.60096e-22)
(-0.0149912 0.00114532 1.84074e-22)
(-0.00792936 0.000287754 -4.38605e-23)
(-0.00212877 2.18954e-05 -2.72316e-23)
(-0.00756246 -0.288908 0)
(-0.120671 -0.194906 0)
(0.5829 -0.103401 4.88199e-22)
(0.85036 -0.000877989 -3.99617e-23)
(0.970592 0.00020335 -1.03053e-22)
(-0.0155945 -0.332757 -1.64651e-21)
(-0.0759777 0.00999955 0)
(-0.056848 0.00552221 1.93195e-22)
(-0.0403624 0.00276132 -1.41635e-24)
(-0.0262633 0.00117105 9.5514e-23)
(-0.0142697 0.000360297 -4.48854e-23)
(-0.00411619 7.18741e-05 0)
(-0.0276367 -0.164076 -5.51181e-22)
(-0.00297096 -0.233142 0)
(-0.0949989 -0.136195 5.08315e-22)
(0.757883 -0.0597744 0)
(0.956547 0.00135209 7.64223e-23)
(-0.0467048 -0.204834 0)
(-0.0980205 0.00827215 0)
(-0.0741225 0.00459995 1.20114e-22)
(-0.0531465 0.00233964 -3.48255e-22)
(-0.0349245 0.00102652 1.12681e-22)
(-0.019231 0.000345075 5.03618e-23)
(-0.00578197 8.90197e-05 -1.68794e-23)
(-0.0156543 -0.118789 2.82624e-22)
(-0.0145449 -0.123209 0)
(-0.000251715 -0.169162 -4.45517e-22)
(-0.0605238 -0.0776078 4.30418e-22)
(0.931394 -0.014722 0)
(-0.0284306 -0.148284 0)
(-0.106898 0.00721863 1.53203e-22)
(-0.0809243 0.0040755 -1.47907e-22)
(-0.0581126 0.00207222 1.43118e-22)
(-0.0382587 0.000903767 -2.7398e-22)
(-0.0211381 0.000304102 3.76782e-22)
(-0.0064993 7.85955e-05 -5.02358e-23)
(-0.0133392 -0.0676462 2.43783e-22)
(-0.0077184 -0.0889261 -5.22044e-22)
(-0.00596677 -0.0839729 1.52074e-22)
(0.00181116 -0.100742 -4.6198e-22)
(-0.0141887 -0.0214019 1.30993e-23)
(-0.0240805 -0.086574 0)
(-0.0154137 -0.0450387 -5.49895e-23)
(-0.107817 0.00777879 -1.88642e-22)
(-0.0815178 0.00491222 7.60382e-22)
(-0.0586197 0.00263629 -7.26015e-22)
(-0.0387277 0.00113674 0)
(-0.0214878 0.000350733 0)
(-0.00670452 7.26612e-05 -5.51093e-24)
(-0.00846851 -0.0349473 1.17264e-22)
(-0.00665923 -0.0496383 3.4387e-24)
(-0.00303004 -0.0604296 3.97974e-22)
(-0.00125898 -0.0475157 -1.49543e-22)
(0.00233727 -0.0310188 0)
(-0.00869686 -0.0195573 8.91221e-22)
(-0.0631753 0.0040727 8.29384e-22)
(-0.0413783 0.0025613 -8.57607e-22)
(-0.0227422 0.000905534 0)
(-0.0069986 0.000157574 -7.7693e-24)
(-0.00478393 -0.0145764 -2.3633e-22)
(-0.00417534 -0.0253886 -9.16844e-23)
(-0.00272684 -0.0331907 1.89024e-22)
(-0.00064325 -0.0341882 -1.29334e-22)
(0.000182218 -0.0143503 4.943e-23)
(-0.00444717 -0.00527537 0)
(-0.00268773 0.00319235 -1.02386e-21)
(-0.0504217 0.00117037 0)
(-0.0176495 0.000391956 -2.71544e-23)
(-0.00151351 0.000754619 0)
(-0.00236696 -0.00360105 -2.40568e-22)
(-0.00233404 -0.0101981 -4.59317e-22)
(-0.00171615 -0.0168 -6.24938e-23)
(-0.000723547 -0.0185706 1.27163e-22)
(7.6384e-05 -0.0106343 -4.96203e-23)
(-0.00107015 -0.000875153 2.08779e-21)
(-0.00129701 0.00154549 2.17862e-21)
(-0.00309224 0.0036732 7.01913e-23)
(-0.000135134 0.00193917 -4.81415e-22)
(-0.000745114 0.00100595 -9.73467e-25)
(-0.00111157 -0.00226364 1.24591e-22)
(-0.000953804 -0.00651454 3.72022e-22)
(-0.000482537 -0.00931686 7.62243e-24)
(-6.56439e-05 -0.00582166 -2.27934e-23)
(-0.000145223 -0.002529 -1.87029e-24)
(-0.000448502 -0.00138704 -1.74666e-21)
(-0.000543532 0.000679099 -5.26812e-22)
(-0.00135442 0.00156856 0)
(-0.00318199 0.00909553 1.51662e-21)
(0.000380088 0.00147652 -2.58741e-22)
(-6.33355e-06 0.00172412 2.56504e-22)
(-0.000312783 0.00102557 1.28432e-22)
(-0.000437597 -0.00127597 0)
(-0.000270829 -0.00349442 -1.21932e-22)
(-6.4571e-05 -0.00292324 1.71286e-23)
(0.000226976 -0.00277416 8.27372e-22)
(1.35519e-05 -0.00237987 3.3372e-22)
(-0.000160161 -0.00144226 1.96667e-22)
(-0.000172414 0.000194547 5.35908e-23)
(-0.00033311 0.000541517 -6.14431e-23)
(-0.000457938 0.00210621 1.09195e-21)
(0.000303899 0.000523876 1.08133e-21)
(0.000243153 0.00124287 -4.04746e-22)
(2.8217e-05 0.00140185 -2.63975e-22)
(-0.000106553 0.000860334 -1.28486e-22)
(-0.000115185 -0.000590533 0)
(-3.94893e-05 -0.00105879 -1.12752e-23)
(0.000519563 -0.00202146 0)
(0.000182962 -0.00236461 -2.86277e-22)
(4.70897e-05 -0.0019793 -9.86397e-22)
(-3.70426e-05 -0.0012 3.2144e-22)
(-2.1884e-05 -2.71033e-05 -3.5813e-22)
(-1.23612e-05 1.12361e-05 9.65353e-24)
(0.000521448 0.000187933 -4.69781e-22)
(0.000168269 0.000391431 7.16179e-22)
(0.000136785 0.00096125 -6.92958e-22)
(2.67467e-05 0.001015 1.32346e-22)
(-1.71841e-05 0.000570203 0)
(-1.09481e-05 -0.000144262 1.11485e-23)
(0.000382616 -0.000686845 0)
(0.000311973 -0.00166701 5.50336e-22)
(0.0001138 -0.00184561 7.16386e-22)
(3.76346e-05 -0.00144545 9.39581e-22)
(8.3077e-06 -0.000782553 -3.33746e-22)
(9.76111e-06 -5.44463e-05 -2.20427e-23)
(0.0011788 0.00027116 -5.608e-22)
(0.000371391 0.000102277 0)
(8.21852e-05 0.000268556 5.1431e-22)
(6.36919e-05 0.000665765 0)
(1.65215e-05 0.000602631 0)
(6.15836e-06 0.000207065 0)
(0.000706671 -0.000230214 6.27149e-22)
(0.000206646 -0.00051624 -5.69239e-22)
(0.000166363 -0.00126629 -5.59998e-22)
(5.76735e-05 -0.00128851 -4.18046e-22)
(2.37101e-05 -0.000860483 -4.34714e-22)
(1.31257e-05 -0.000276486 1.31196e-23)
(0.00164814 0.00014278 0)
(0.000940828 0.000155765 1.40551e-22)
(0.000245466 5.05163e-05 0)
(3.17815e-05 0.000164596 1.99074e-27)
(2.16169e-05 0.000378159 0)
(8.58584e-06 0.000193039 -8.98007e-23)
(0.00179457 -2.51756e-05 0)
(0.00153387 -0.000252164 -5.66025e-22)
(0.000513958 -0.000129467 -1.57976e-22)
(9.79124e-05 -0.000354809 2.91837e-22)
(7.45936e-05 -0.000863269 -4.14943e-22)
(2.43007e-05 -0.000738911 -1.31455e-22)
(1.22072e-05 -0.00027702 9.15593e-23)
(0.00132403 8.07561e-05 -1.88758e-23)
(0.000700816 8.07459e-05 -2.10196e-22)
(0.0001469 1.96548e-05 0)
(6.23269e-06 8.17917e-05 -1.08206e-22)
(5.45727e-06 0.000110654 9.05898e-23)
(0.00143984 -1.71479e-05 2.09883e-24)
(0.00122389 -0.000148482 6.35669e-22)
(0.000347309 -6.48526e-05 -4.72924e-27)
(3.7224e-05 -0.000218118 1.34073e-25)
(2.42916e-05 -0.000482792 -2.65263e-22)
(9.41603e-06 -0.000223566 8.3628e-23)
(0.000996235 4.17405e-05 1.48566e-22)
(0.000473537 3.56472e-05 1.0254e-22)
(7.2347e-05 3.80106e-06 -1.2614e-22)
(-1.17949e-06 1.8893e-05 2.30045e-23)
(0.00108327 -1.02483e-05 2.09432e-24)
(0.00091433 -7.95309e-05 -1.40599e-22)
(0.000212849 -2.5695e-05 4.5414e-22)
(7.14164e-06 -0.000108961 -2.12757e-22)
(5.95016e-06 -0.000136952 3.38916e-26)
(0.00068174 1.86193e-05 0)
(0.000266119 1.17626e-05 1.13805e-22)
(1.71456e-05 -1.06852e-06 7.96653e-23)
(0.000741775 -5.56995e-06 0)
(0.000620355 -3.63452e-05 -2.05687e-22)
(0.000107517 -5.27082e-06 3.95887e-22)
(-1.42208e-06 -2.52864e-05 4.39579e-23)
(0.000390279 6.39116e-06 -9.70937e-25)
(8.11232e-05 2.79048e-06 -1.43007e-22)
(0.000425151 -2.72118e-06 9.69675e-25)
(0.000350387 -1.27293e-05 -1.14026e-22)
(2.64227e-05 1.15223e-06 1.12927e-22)
(0.000126426 1.63008e-06 4.33787e-23)
(0.000137995 -1.2147e-06 0)
(0.000107664 -3.54104e-06 -1.0996e-23)
(-0.142806 0.304014 2.2239e-21)
(-0.0269629 0.258911 5.09893e-22)
(-0.0419198 0.128288 0)
(-0.0753926 0.189516 2.78644e-21)
(-0.0629122 0.194199 -2.94458e-21)
(-0.0730268 0.268222 0)
(-0.0373525 0.311071 0)
(-0.098049 0.353167 -1.02573e-21)
(-0.0849413 0.314154 0)
(-0.0388485 0.266553 -1.8853e-21)
(0.152141 0.126682 4.2376e-21)
(-0.0955143 0.278802 0)
(-0.0338072 0.0636932 -3.65739e-22)
(-0.0560649 0.105235 0)
(-0.0162069 0.0192679 -3.81858e-21)
(-0.0385949 0.0469807 3.90772e-21)
(-0.0831538 0.121685 -2.27054e-21)
(-0.114781 0.159365 0)
(-0.0953967 0.203446 0)
(-0.1191 0.240186 6.184e-22)
(-0.108799 0.295471 0)
(-0.0975186 0.289501 1.9587e-21)
(-0.0153221 0.19443 2.36969e-21)
(0.0946377 0.155466 -5.71816e-21)
(0.30274 0.0911867 1.12335e-21)
(-0.149957 0.235188 -5.9006e-22)
(-0.140569 0.252389 0)
(-0.0215724 0.0120695 -3.15921e-21)
(-0.049186 0.0286474 8.6544e-22)
(-0.0607726 0.0521473 7.2045e-22)
(-0.0913631 0.0818479 2.30864e-21)
(-0.121506 0.080634 -4.44567e-21)
(-0.167456 0.11539 -3.93374e-21)
(-0.159386 0.156862 -3.00676e-21)
(-0.184474 0.185384 5.63187e-21)
(-0.130985 0.208639 -1.64178e-21)
(-0.0600756 0.183995 -1.71404e-21)
(0.0431804 0.128381 0)
(0.387334 0.0503613 -5.74662e-21)
(0.190255 0.106371 0)
(0.423659 0.0297393 0)
(0.243476 0.0592341 4.83661e-21)
(-0.206793 0.17272 0)
(-0.178889 0.179709 0)
(-0.0109229 -0.277312 6.03749e-21)
(-0.146162 -0.330295 0)
(0.386227 -0.0834436 0)
(0.436195 0.0147609 -1.9703e-22)
(0.273205 0.0340528 0)
(0.269071 -0.0943366 0)
(0.45608 -0.0375966 1.18337e-21)
(0.457934 0.00175511 3.69669e-21)
(0.296035 0.00848043 0)
(0.31945 -0.0441979 0)
(0.473346 -0.015258 0)
(0.324491 -0.0149328 -3.75351e-21)
(-0.0639504 0.0225413 1.14971e-21)
(-0.0973951 0.0360016 -1.44561e-21)
(-0.120485 0.0485602 4.7554e-21)
(-0.173428 0.0547383 0)
(-0.202216 0.0850096 0)
(-0.231574 0.0953224 -3.10527e-21)
(-0.249504 0.119889 -2.3633e-21)
(-0.152418 0.138991 0)
(0.0672441 0.0802701 3.34726e-21)
(-0.035461 0.117859 0)
(0.151536 0.0434148 0)
(0.00449817 0.068009 -3.61984e-21)
(-0.26694 0.10613 7.84825e-21)
(-0.228707 0.113033 -2.3191e-21)
(-0.0113832 -0.264122 -3.40735e-21)
(0.172139 -0.137652 7.67099e-21)
(0.146925 -0.156881 -6.00272e-21)
(-0.114922 -0.386854 1.70482e-21)
(-0.0773246 -0.328863 -3.71074e-21)
(-0.0362489 -0.36018 2.4376e-22)
(0.0474022 -0.183573 -6.3646e-21)
(0.0507146 -0.153742 2.08631e-21)
(0.149223 -0.11001 3.22759e-21)
(0.133408 0.00994431 0)
(0.0253882 0.0379276 0)
(0.0859166 -0.0941973 -3.55705e-21)
(0.18886 -0.0572019 0)
(0.100424 -0.0462622 -3.31662e-21)
(0.19988 -0.0211223 3.02452e-21)
(0.0608978 -0.00986485 4.60993e-21)
(-0.0972636 0.016141 1.65326e-21)
(-0.141032 0.0248266 0)
(-0.168114 0.0342729 0)
(-0.213417 0.0400121 3.28417e-21)
(-0.244932 0.0586927 0)
(-0.274051 0.0596931 8.26398e-21)
(-0.294272 0.0757128 -7.06238e-21)
(-0.108629 0.0540045 0)
(-0.132269 0.0687506 -5.67709e-21)
(-0.222794 0.0870848 1.15641e-20)
(-0.195375 0.0397807 0)
(-0.292391 0.0749358 -7.47442e-21)
(-0.305925 0.0688238 -3.98685e-21)
(-0.0859486 -0.314786 0)
(-0.0708649 -0.248293 7.7279e-21)
(-0.0719775 -0.243425 0)
(-0.0640463 -0.322751 -5.27602e-22)
(-0.090131 -0.325686 4.14374e-22)
(-0.102511 -0.242088 -7.93671e-21)
(-0.0607777 -0.188271 -7.29139e-21)
(-0.090823 -0.162398 9.69587e-21)
(-0.0377236 -0.115978 2.99032e-21)
(-0.104188 -0.0833185 -3.91777e-21)
(-0.050665 -0.0527378 0)
(-0.0777868 -0.0179816 -3.1866e-21)
(-0.17249 0.0106926 0)
(-0.123383 0.0131548 0)
(-0.167632 0.0197593 -1.28138e-21)
(-0.197913 0.0255768 -5.02098e-21)
(-0.232252 0.0319014 4.30601e-21)
(-0.260941 0.0425344 -1.53242e-21)
(-0.279337 0.0446519 -1.96702e-21)
(-0.307143 0.0565 6.22845e-21)
(-0.277569 0.0465336 -6.94763e-21)
(-0.30091 0.0615629 8.47088e-21)
(-0.264079 0.0153182 0)
(-0.298594 0.0394267 -1.19038e-21)
(-0.32078 0.061498 0)
(-0.313935 0.056232 0)
(-0.0467874 -0.173912 -1.237e-20)
(-0.0894913 -0.248566 4.26701e-21)
(-0.109969 -0.2585 5.15527e-21)
(-0.121942 -0.288199 -7.1051e-22)
(-0.138 -0.258878 6.55487e-22)
(-0.172469 -0.209567 -7.46661e-21)
(-0.175273 -0.170219 0)
(-0.195897 -0.112719 -9.3307e-21)
(-0.280896 0.0176648 -4.39214e-21)
(-0.237609 -0.0818244 6.78829e-21)
(-0.273948 -0.0185011 2.80157e-21)
(-0.135352 0.0115479 4.51887e-21)
(-0.29418 0.052755 2.69787e-21)
(-0.173266 0.0178553 -3.22845e-21)
(-0.198678 0.0231937 -2.7951e-21)
(-0.22595 0.031157 -6.0536e-21)
(-0.261109 0.0395543 1.35457e-21)
(-0.270445 0.0437217 -3.43251e-21)
(-0.29381 0.0456865 -2.69944e-21)
(-0.317771 0.0603811 6.72876e-22)
(-0.312842 0.0511795 1.2328e-21)
(-0.274274 0.058783 4.81734e-21)
(-0.290625 0.0565341 1.99684e-21)
(-0.301409 0.0641389 -1.2794e-21)
(-0.293567 0.0607979 -1.91887e-21)
(-0.241816 0.0642228 -6.67727e-21)
(-0.0389005 -0.104739 0)
(-0.0624732 -0.165523 8.2779e-21)
(-0.182517 0.0657885 0)
(-0.220863 0.0552508 4.37751e-21)
(-0.120337 0.0612422 8.4767e-21)
(-0.146071 0.0578807 -5.59737e-21)
(-0.0860002 -0.18091 0)
(-0.125187 -0.220753 -4.90063e-21)
(-0.162329 -0.198111 1.50026e-20)
(-0.218874 0.0284081 -5.83719e-21)
(-0.245044 0.00860615 4.62054e-21)
(-0.179468 -0.15683 -1.06996e-20)
(-0.230328 -0.0767482 1.13795e-22)
(-0.22204 -0.0474064 -9.42616e-21)
(-0.135546 0.0117224 0)
(-0.265721 0.0525322 0)
(-0.24472 0.0394077 2.59727e-22)
(-0.250264 0.0461199 -3.54492e-22)
(-0.168932 0.0200191 -5.02402e-21)
(-0.196948 0.0262254 5.343e-21)
(-0.215306 0.0313007 4.63535e-21)
(-0.284249 0.0697778 1.83102e-21)
(-0.276281 0.0693536 -4.1694e-22)
(-0.246789 0.0770314 3.63344e-21)
(-0.227639 0.0760864 1.32587e-21)
(-0.258675 0.0569964 -5.47663e-21)
(-0.264244 0.0715373 2.00024e-23)
(-0.271023 0.063535 4.67624e-21)
(-0.20085 0.0817188 2.29947e-21)
(-0.175971 0.0800471 -7.50228e-21)
(-0.119437 0.072856 2.88275e-21)
(-0.144595 0.0802505 2.38149e-21)
(-0.0953589 0.0705933 -3.36766e-21)
(-0.057327 0.0521998 0)
(-0.0756382 0.0587055 2.79801e-21)
(-0.0915042 0.0544917 -2.40017e-22)
(-0.0830713 0.0468163 0)
(-0.0248533 -0.0545008 -4.19667e-21)
(-0.0489633 -0.0946543 4.10596e-21)
(-0.0593639 -0.102189 2.8873e-21)
(-0.0949667 -0.137796 0)
(-0.107261 0.031594 1.02037e-20)
(-0.140633 0.0340432 0)
(-0.168362 0.0187641 5.66234e-21)
(-0.121076 -0.116038 1.3064e-22)
(-0.152158 -0.0267273 1.5336e-21)
(-0.1512 -0.123889 -4.2196e-21)
(-0.17958 -0.0559434 8.46611e-21)
(-0.0138832 -0.0250688 -4.96238e-22)
(-0.0254601 -0.042898 0)
(-0.125779 0.010733 0)
(-0.0849157 0.00381636 -5.14743e-22)
(-0.10268 0.00499803 5.1889e-22)
(-0.223328 0.0439735 -3.0089e-21)
(-0.233959 0.0540064 2.64581e-21)
(-0.149784 0.0165299 0)
(-0.184539 0.0255193 -2.45689e-21)
(-0.200716 0.0349968 2.95944e-21)
(-0.198658 0.0860393 1.24119e-21)
(-0.238699 0.0763788 -2.01792e-21)
(-0.232177 0.081351 -2.56062e-21)
(-0.21821 0.0599536 -3.40965e-21)
(-0.218528 0.0713228 6.76109e-22)
(-0.175841 0.0839282 0)
(-0.147637 0.0840176 0)
(-0.134153 0.0824434 0)
(-0.106718 0.0790342 -2.97528e-21)
(-0.0871733 0.0724623 -1.67553e-21)
(-0.0671887 0.0658644 3.98904e-21)
(-0.0503235 0.0539945 0)
(-0.00776913 0.0144614 0)
(-0.00497474 0.0095661 -6.67707e-22)
(-0.0142005 0.0258607 3.59664e-21)
(-0.0227599 0.0348893 -3.15287e-21)
(-0.0361961 0.0469301 0)
(-0.0257445 0.0327547 -5.8558e-21)
(-0.0391925 0.0401254 3.73901e-23)
(-0.0106929 0.015367 0)
(-0.0146185 0.0200881 -4.59905e-21)
(-0.00490043 0.00585357 0)
(-0.0414647 0.0353112 1.34701e-23)
(-0.0594643 0.0399394 2.04704e-23)
(-0.0586293 0.0303027 3.55559e-21)
(-0.0920619 0.0258351 -4.32535e-21)
(-0.0362164 -0.0477292 8.81325e-21)
(-0.0602262 -0.0666764 -1.8549e-20)
(-0.0878994 -0.0668948 3.95131e-21)
(-0.0873579 0.00898682 -2.27996e-21)
(-0.0962138 -0.0377746 8.37708e-21)
(-0.116725 -0.0224948 -5.88548e-21)
(-0.00685717 -0.00709197 0)
(-0.0130035 -0.0154195 0)
(-0.0160995 -0.0167172 -3.64665e-21)
(-0.0321455 -0.0282091 -5.33391e-21)
(-0.00419338 0.00677307 5.65009e-22)
(-0.117548 0.0103634 1.25428e-21)
(-0.0696336 0.000809769 0)
(-0.0873146 0.00280129 -1.0974e-21)
(-0.146356 0.0291819 1.49131e-21)
(-0.173147 0.037381 -4.45939e-21)
(-0.188865 0.0548253 -8.08785e-23)
(-0.161884 0.06759 4.04947e-21)
(-0.181077 0.0758081 -4.75299e-21)
(-0.168591 0.0811676 3.23352e-21)
(-0.0987467 0.0788114 -3.93026e-21)
(-0.128098 0.0778444 6.07476e-23)
(-0.125525 0.0824936 1.1115e-21)
(-0.0369905 0.0529097 4.04498e-21)
(-0.0564152 0.0642519 -4.40395e-23)
(-0.0783519 0.0715117 1.95857e-21)
(-0.0111147 0.0272331 1.76698e-21)
(-0.0272509 0.044694 -2.14051e-21)
(-0.00628606 0.0176743 -1.5882e-21)
(-0.0164726 0.0184639 5.2343e-21)
(-0.0260599 0.0238892 0)
(-0.00500163 0.00498505 4.11197e-21)
(-0.00734433 0.00749726 -7.26724e-21)
(-0.00220897 0.000360656 0)
(-0.00221034 0.000278401 0)
(-0.00447553 -0.00219851 -1.15542e-21)
(-0.0266187 0.0193548 5.24179e-21)
(-0.0411002 0.0216765 -1.57308e-23)
(-0.0410183 0.014203 -1.07813e-20)
(-0.0629053 0.00755732 1.08835e-20)
(-0.0387368 -0.0178591 3.80784e-21)
(-0.0540333 -0.0177141 -3.09019e-21)
(-0.0476482 -0.00258771 -3.80797e-21)
(-0.00650349 -0.00310478 7.17187e-22)
(-0.0130108 -0.0071344 2.03331e-21)
(-0.021306 -0.00661304 1.40879e-21)
(-0.00505219 0.0133855 -3.05196e-21)
(-0.0291635 0.0493696 0)
(-0.0614424 0.0637183 0)
(-0.0929003 0.0359077 3.94723e-21)
(-0.10853 0.055179 -2.7684e-21)
(-0.100769 0.0669494 0)
(-0.0222042 0.00259234 3.06366e-23)
(-0.0624644 0.0147667 0)
(-0.00998857 0.0308353 -1.03622e-22)
(-0.00083079 0.00169643 -6.08659e-22)
(-0.000221629 0.00199181 2.99371e-21)
(-0.00922475 0.0068813 7.49883e-21)
(-0.0146079 0.0105569 0)
(-0.00153002 -0.000741885 -3.39831e-21)
(-0.00341611 0.000676961 -1.07868e-20)
(-0.000485258 -0.00224949 5.95541e-21)
(-0.00139655 0.00140739 4.21845e-22)
(-0.00534598 -0.000728862 0)
(-0.0157838 0.00599197 0)
(-0.0255967 0.00783835 0)
(-0.0280776 0.000507154 0)
(-0.00740733 -0.000626221 4.81287e-21)
(-0.0161822 -0.00292628 -4.11247e-21)
(-0.0184442 0.000578917 0)
(-0.00131591 0.00989799 0)
(-0.000425667 0.00160467 2.72243e-21)
(0.000564576 0.00162818 -6.82876e-21)
(0.000631479 0.00190236 1.18866e-20)
(0.000610424 0.00172744 -7.18378e-21)
(0.000853902 0.00119726 -2.3387e-21)
(0.000458296 0.000621641 0)
(-0.00311568 -3.21563e-05 3.51845e-21)
(-0.00664256 0.0013403 0)
(0.000152292 -0.0028672 0)
(-0.000226237 -0.00236917 0)
(0.000221276 -0.0029638 -1.29466e-21)
(-0.000795869 0.00105146 2.23577e-21)
(-0.00308402 0.000792312 0)
(-0.00239286 0.000431578 6.76821e-21)
(-0.00460595 0.000721522 1.79013e-21)
(-0.00595154 0.00149094 -6.75047e-21)
(0.00112391 0.00141847 0)
(0.000733818 0.00126077 5.27897e-21)
(0.00121068 0.0010426 8.56191e-21)
(0.00144905 0.00121562 -9.71135e-21)
(0.000659294 0.000337506 -1.74311e-22)
(0.00119107 0.000639453 7.2326e-21)
(0.000759596 -0.00225267 1.4529e-21)
(0.000181639 -0.00127025 -1.08949e-21)
(0.000736784 -0.00225224 -8.36573e-21)
(0.000935865 -0.0026302 1.14312e-20)
(0.00117312 -0.00248142 0)
(0.00128211 0.000929091 -5.35784e-21)
(0.000492847 0.000826224 -7.84257e-21)
(0.00166338 6.87576e-06 1.16276e-20)
(0.00153961 -0.000982006 0)
(0.0010527 -0.00144888 0)
(0.000573292 -0.000804837 4.46003e-21)
(0.00191758 0.000820735 3.35723e-21)
(0.00203705 0.000777513 -5.95475e-21)
(0.00141082 0.000447148 -1.30428e-22)
(0.00186216 0.000583439 1.77876e-24)
(0.00154867 -0.00131338 0)
(0.00190874 -0.00159183 1.95041e-21)
(0.00215246 -0.00106984 -1.68495e-21)
(0.00249176 0.000268317 -4.13692e-24)
(0.00240335 -0.00053313 7.99821e-22)
(0.00241114 -0.000112564 6.32215e-21)
(0.000866984 -0.000383291 -5.91195e-21)
(0.00157426 -0.000743771 0)
(0.00197239 0.000245841 -8.83084e-21)
(0.00239084 0.000196774 4.21024e-21)
(0.0021563 -3.39658e-05 4.48348e-21)
(0.00185919 -0.000426097 0)
(0.00226215 -0.000444604 -4.91205e-21)
)
;

boundaryField
{
    movingWall
    {
        type            fixedValue;
        value           uniform (1 0 0);
    }
    fixedWalls
    {
        type            noSlip;
    }
    frontAndBack
    {
        type            empty;
    }
    defaultFaces
    {
        type            empty;
    }
}


// ************************************************************************* //
