/*--------------------------------*- C++ -*----------------------------------*\
  =========                 |
  \\      /  F ield         | OpenFOAM: The Open Source CFD Toolbox
   \\    /   O peration     | Website:  https://openfoam.org
    \\  /    A nd           | Version:  8
     \\/     M anipulation  |
\*---------------------------------------------------------------------------*/
FoamFile
{
    version     2.0;
    format      ascii;
    class       volScalarField;
    location    "0.03";
    object      p;
}
// * * * * * * * * * * * * * * * * * * * * * * * * * * * * * * * * * * * * * //

dimensions      [0 2 -2 0 0 0 0];

internalField   nonuniform List<scalar> 
424
(
-1.11708e-05
0.0553639
0.0135653
0.116872
0.0958903
0.247632
0.101208
0.0534016
0.277452
0.495226
0.477247
0.49003
0.0100517
-0.151531
0.50779
0.749482
0.507673
0.513292
-0.422345
-0.18501
0.748894
1.00217
0.672421
0.673132
-0.674573
-0.436981
-0.379877
-0.395167
0.988094
1.26896
1.47443
1.53722
0.849997
0.848084
-3.52176
-0.889406
-1.11157
-1.38841
-0.677285
-0.412391
-0.417502
1.23492
1.42834
1.52443
1.41548
1.00694
1.00458
-2.88797
-2.65238
-0.887681
-1.12258
-1.18033
-0.577141
-0.578348
1.43288
1.47111
1.02664
1.02288
-2.27045
-1.12828
-0.760082
-0.757782
1.51826
1.67542
-1.05325
-0.622594
-0.947108
-0.946093
1.92507
1.70864
-0.0212654
-0.599866
-1.01424
-1.03847
2.18131
1.93748
1.89669
1.90978
0.727656
0.00790054
4.37553
2.40368
1.47317
2.10433
2.68248
5.2536
2.88415
2.6166
2.17909
1.94233
1.94801
0.733053
-0.386159
3.94743
2.397
1.45873
2.08197
2.56912
4.53517
2.64027
2.62658
2.10459
2.10532
-0.162969
-0.411946
2.29251
2.29007
0.392673
-0.163332
2.48802
2.49271
0.978523
0.392107
2.57607
2.60689
1.55993
0.977486
1.82046
1.55504
1.83856
0.130722
0.0402983
0.0477883
0.0778743
0.0939678
0.165576
-0.0275559
0.0102368
0.223887
0.317199
0.332471
0.151101
0.177222
0.218585
0.335457
0.303295
0.29462
0.444573
0.460081
0.445705
0.0643865
-0.000567531
0.0697194
0.035761
-0.0168977
-0.0627778
-0.0409052
-0.160789
-0.082262
-0.188831
0.000299734
0.044854
0.0694148
0.114277
0.304743
0.169841
0.363112
0.353178
0.489836
0.51101
0.583383
0.512757
0.598582
-0.03204
-0.0341288
-0.186019
-0.20343
-0.232232
-0.266936
-0.271669
-0.0489398
-0.281209
-0.094965
-0.232321
0.642667
0.638683
0.750717
0.783065
0.678716
0.784144
-0.294124
-0.282101
-0.439475
-0.338965
-0.401346
-0.380282
-0.348981
0.885561
0.885023
0.985612
0.958402
1.05265
0.853616
0.943837
-0.547038
-0.672699
-0.503734
-0.555143
-0.419894
-0.515329
1.13552
1.1503
1.20714
1.21734
1.27437
1.22123
1.10965
1.18335
1.00496
1.08296
-0.789361
-0.884071
-0.696675
-0.77751
-0.583277
-0.70089
1.32541
1.30423
1.31714
1.35486
1.4011
1.38496
1.38147
1.38577
1.39044
1.49667
1.49953
1.44968
1.18528
1.27123
1.03964
1.18598
1.35397
1.38456
1.45399
-1.2656
-1.65521
-2.50231
-2.08927
-1.0187
-1.11753
-1.2314
-1.01907
-0.869005
-0.936478
-0.764775
-0.870764
-1.14742
-1.25558
1.50142
1.44729
1.45808
1.45245
1.51736
1.45747
1.46853
1.51772
1.56242
1.58809
1.68634
1.34038
1.43539
1.51205
1.49496
1.14
1.26377
-1.48826
-1.4194
-1.63639
-1.23508
-1.08131
-1.10462
-1.14972
-1.00726
-1.0714
-0.943398
-1.02023
-0.855221
-1.1955
-1.10137
-1.07445
-1.11837
-1.22153
1.56602
1.62256
1.69832
1.55637
1.73502
1.73003
1.76145
1.78461
1.56445
1.77277
1.61181
1.73686
-0.819567
-0.723896
-0.942557
-0.595011
-0.698912
-0.56485
-1.09709
-1.10619
-0.746667
-0.756982
-1.02471
-1.12778
-1.03866
-1.07776
-1.24177
-1.1725
-1.05178
-0.753602
1.77565
1.7896
1.94049
1.86802
1.91251
1.88462
1.87209
-0.396134
-0.399836
0.0266397
-0.357292
-0.0572254
-0.411347
-0.345187
-1.40121
-1.31478
-1.08293
-1.21508
-1.15734
-1.51207
-1.48653
-1.19844
2.06656
2.1815
2.015
2.06453
1.94611
2.02939
0.310943
0.73751
0.0736492
0.326942
-0.16071
0.14491
-1.13361
3.7137
4.0656
2.31301
2.39238
2.18854
2.31052
2.11092
2.20083
1.14587
1.45152
0.805421
1.13649
0.416874
0.791861
2.57775
3.13352
2.53361
2.62093
1.88837
2.07514
2.37362
2.73775
3.01015
2.74743
3.21654
2.64931
2.52375
2.40066
2.47254
2.29154
2.39296
1.90336
1.43954
1.5282
0.980819
1.35472
2.28294
2.9208
2.65896
2.62032
2.17824
2.20417
2.79761
2.67916
2.70089
2.67871
2.58134
2.59601
2.47898
2.58915
1.79064
2.03696
1.56867
1.77114
2.39654
2.65427
2.62667
2.64332
2.15725
2.35901
2.76827
2.63377
2.67447
2.59485
2.66938
1.84339
2.12179
2.62638
2.97666
2.88733
2.53025
2.56591
3.09595
3.05814
2.63686
2.55664
)
;

boundaryField
{
    movingWall
    {
        type            zeroGradient;
    }
    fixedWalls
    {
        type            zeroGradient;
    }
    frontAndBack
    {
        type            empty;
    }
    defaultFaces
    {
        type            empty;
    }
}


// ************************************************************************* //
