/*--------------------------------*- C++ -*----------------------------------*\
  =========                 |
  \\      /  F ield         | OpenFOAM: The Open Source CFD Toolbox
   \\    /   O peration     | Website:  https://openfoam.org
    \\  /    A nd           | Version:  8
     \\/     M anipulation  |
\*---------------------------------------------------------------------------*/
FoamFile
{
    version     2.0;
    format      ascii;
    class       volVectorField;
    location    "0.03";
    object      U;
}
// * * * * * * * * * * * * * * * * * * * * * * * * * * * * * * * * * * * * * //

dimensions      [0 1 -1 0 0 0 0];

internalField   nonuniform List<vector> 
656
(
(0.743381 0.0565323 -9.65305e-25)
(0.927892 0.0140699 1.86645e-24)
(0.95478 -0.00127311 0)
(-0.091075 0.119004 2.39905e-23)
(0.556753 0.0977227 1.12083e-23)
(0.841207 0.000937548 0)
(-0.057179 0.0672363 -4.94088e-23)
(-0.0145956 0.0188491 9.84838e-24)
(0.968187 -0.000151162 0)
(-0.000507521 0.138577 -2.3797e-24)
(-0.00305742 0.193083 -7.84049e-23)
(-0.11774 0.172059 0)
(0.376012 0.139825 1.00516e-23)
(0.714944 0.00929388 0)
(0.890846 0.00126796 -1.70551e-22)
(0.906254 0.000572466 4.77663e-23)
(0.00103988 0.0823335 9.73391e-24)
(0.00137452 0.0267198 0)
(0.971758 -7.79773e-05 -3.43165e-23)
(0.913151 0.000285668 -1.43674e-22)
(-0.0123913 0.092772 7.71647e-23)
(-0.00523521 0.0628117 0)
(-0.023928 0.124957 1.33474e-24)
(-0.00791345 0.242457 1.54125e-22)
(-0.13612 0.223429 -1.6779e-22)
(0.210334 0.180395 -2.26562e-23)
(0.577543 0.0245515 0)
(0.80043 0.00635055 2.66274e-22)
(0.828921 0.00299542 -8.91073e-23)
(-0.00144256 0.035634 0)
(-0.000151514 0.0114361 0)
(0.916281 0.000147895 5.13616e-23)
(0.973215 -4.93891e-05 -3.66536e-23)
(0.842038 0.00157541 1.95758e-22)
(0.84816 0.000776192 -5.18239e-23)
(0.852581 5.09251e-05 -1.08997e-22)
(-0.00677303 0.0608052 -1.0548e-22)
(-0.00280447 0.0408745 1.70852e-23)
(-0.0137786 0.0823741 -1.88505e-22)
(-0.040859 0.158328 -1.57809e-22)
(-0.0167448 0.282675 1.66616e-22)
(-0.143755 0.269508 -4.80546e-24)
(0.068612 0.217856 4.55081e-22)
(0.432976 0.0473339 0)
(0.696133 0.0161655 0)
(0.738507 0.00793707 -3.69659e-22)
(-0.000821027 0.0230034 -5.40699e-24)
(-0.00012883 0.00731619 0)
(0.853523 -0.000869222 1.20345e-22)
(0.918644 2.51037e-05 -2.78456e-23)
(0.973785 -2.22038e-05 4.93205e-24)
(0.75838 0.00425542 0)
(0.767863 0.0021037 0)
(0.774661 0.000120077 -1.06778e-22)
(0.776243 -0.00234268 4.60395e-22)
(0.761825 -0.00595344 0)
(-0.010359 0.0365522 2.00364e-22)
(-0.00501467 0.0257153 2.95448e-22)
(-0.00202604 0.0165081 -2.87831e-22)
(-0.0249999 0.104596 -1.85444e-22)
(-0.0193102 0.0488386 5.85365e-22)
(0.286505 0.0795081 -1.32798e-22)
(0.57786 0.0318468 1.75061e-22)
(0.633985 0.0163967 -5.20623e-22)
(-0.000553483 0.00884563 4.54305e-23)
(-6.74453e-05 0.00256222 6.09736e-23)
(0.84368 -0.00220382 -2.55095e-22)
(0.919212 -0.000141178 8.55756e-23)
(0.974431 1.2518e-05 5.48859e-24)
(0.725615 -0.015094 -1.15873e-23)
(0.660785 0.00891696 0)
(0.673852 0.00449919 1.93421e-22)
(0.683399 0.00031855 2.0434e-22)
(0.68602 -0.00475988 -8.83645e-22)
(0.667204 -0.0123668 2.27659e-22)
(-0.00838572 0.0139312 8.8952e-22)
(-0.0040487 0.00914835 -6.7547e-24)
(-0.00182576 0.00551972 0)
(-0.000643274 0.00296626 1.05896e-22)
(0.446966 0.0555634 0)
(0.515369 0.0300338 6.659e-22)
(-8.96675e-05 0.00128207 -1.00255e-22)
(5.50826e-05 0.00024416 -3.08997e-23)
(0.604098 -0.0240121 4.72368e-22)
(0.819523 -0.00588432 1.49849e-22)
(0.913837 -0.000362986 0)
(0.974784 4.34034e-05 -5.29153e-23)
(0.61833 -0.0300168 -2.89204e-22)
(0.467204 -0.047071 7.2681e-22)
(0.251148 -0.190645 -8.79821e-22)
(0.548381 0.0167077 0)
(0.564811 0.00844309 4.66863e-23)
(0.577408 0.000865404 -1.4536e-22)
(0.581735 -0.00862637 5.12623e-22)
(0.559309 -0.0228653 -8.71065e-22)
(-0.0147915 0.00624941 3.74335e-22)
(-0.00926388 0.00306348 -3.99403e-22)
(-0.00539352 0.00139782 -1.97983e-22)
(-0.00281515 0.000481001 3.9192e-22)
(-0.00117799 4.45728e-05 4.71971e-23)
(-0.000206891 -6.15844e-05 -2.85382e-23)
(-0.136827 -0.249959 5.90204e-23)
(0.411737 -0.147915 -6.14276e-23)
(0.73235 -0.00898726 -7.96659e-22)
(0.900794 -0.00111408 0)
(0.97355 0.00011175 0)
(0.49753 -0.0535514 5.52803e-22)
(0.324135 -0.0806816 -2.77763e-22)
(0.105797 -0.229803 1.02663e-22)
(-0.141615 -0.297751 1.3848e-21)
(-0.0464531 0.011185 0)
(-0.0339538 0.00580971 1.87211e-22)
(-0.0235617 0.00284607 -6.61215e-22)
(-0.0149787 0.00114218 1.84382e-22)
(-0.00792702 0.000288225 -4.39339e-23)
(-0.00212943 2.27855e-05 -2.72769e-23)
(-0.00768872 -0.288036 0)
(-0.120711 -0.194761 0)
(0.582798 -0.103385 4.88556e-22)
(0.850165 -0.000873024 -3.99971e-23)
(0.970494 0.000203716 -1.03181e-22)
(-0.0158483 -0.331588 -1.64714e-21)
(-0.0755626 0.0098862 0)
(-0.0565666 0.00546554 1.93602e-22)
(-0.0401818 0.00273594 -1.45756e-24)
(-0.026157 0.00116204 9.57384e-23)
(-0.0142175 0.000358715 -4.4992e-23)
(-0.00410284 7.23025e-05 0)
(-0.0277216 -0.162695 -5.51446e-22)
(-0.00302702 -0.232531 0)
(-0.0950125 -0.136121 5.0842e-22)
(0.757837 -0.0597733 0)
(0.956496 0.00135154 7.65261e-23)
(-0.0468579 -0.203007 0)
(-0.0972447 0.00812508 0)
(-0.0735704 0.00452347 1.20415e-22)
(-0.0527736 0.00230377 -3.49134e-22)
(-0.034693 0.0010125 1.12979e-22)
(-0.0191103 0.000341799 5.04814e-23)
(-0.0057478 8.90963e-05 -1.69254e-23)
(-0.0156231 -0.117218 2.82707e-22)
(-0.0145898 -0.122224 0)
(-0.000275857 -0.168771 -4.4561e-22)
(-0.0605244 -0.0775774 4.30509e-22)
(0.931384 -0.0147239 0)
(-0.0283614 -0.146223 0)
(-0.105815 0.0070428 1.53591e-22)
(-0.0801382 0.00398305 -1.48277e-22)
(-0.0575711 0.00202812 1.43486e-22)
(-0.037916 0.000886365 -2.74734e-22)
(-0.0209558 0.000299671 3.77826e-22)
(-0.00644554 7.82716e-05 -5.03769e-23)
(-0.0131913 -0.0663313 2.43953e-22)
(-0.00770724 -0.0877959 -5.22396e-22)
(-0.00598648 -0.0833307 1.52123e-22)
(0.00180164 -0.100534 -4.62076e-22)
(-0.0141865 -0.0213969 1.31016e-23)
(-0.0237996 -0.0848429 0)
(-0.0150685 -0.0440907 -5.50342e-23)
(-0.106487 0.00756454 -1.89119e-22)
(-0.0805427 0.00479048 7.62421e-22)
(-0.0579359 0.00257588 -7.27961e-22)
(-0.0382863 0.00111257 0)
(-0.0212485 0.000344354 0)
(-0.0066318 7.19332e-05 -5.52715e-24)
(-0.00828233 -0.0342403 1.17365e-22)
(-0.00658843 -0.048695 3.40334e-24)
(-0.00302711 -0.0596862 3.98237e-22)
(-0.00126478 -0.0471669 -1.49591e-22)
(0.00233618 -0.0309629 0)
(-0.00842921 -0.0193223 8.91794e-22)
(-0.0623123 0.0039459 8.31498e-22)
(-0.0408317 0.00249529 -8.59849e-22)
(-0.0224504 0.000885226 0)
(-0.0069125 0.000154902 -7.79209e-24)
(-0.00463895 -0.0144299 -2.36472e-22)
(-0.00408412 -0.0248915 -9.17651e-23)
(-0.00269865 -0.0325711 1.89212e-22)
(-0.000643488 -0.0337789 -1.29434e-22)
(0.000181166 -0.0142493 4.94516e-23)
(-0.00429474 -0.0055377 0)
(-0.00258476 0.00330688 -1.02254e-21)
(-0.0495875 0.00111182 0)
(-0.017367 0.000379658 -2.724e-23)
(-0.00148496 0.000298156 0)
(-0.00228698 -0.00383645 -2.4064e-22)
(-0.00226333 -0.0101139 -4.59662e-22)
(-0.00167863 -0.0164798 -6.25531e-23)
(-0.000716272 -0.0182288 1.27262e-22)
(7.56171e-05 -0.0105103 -4.9642e-23)
(-0.00102691 -0.000557536 2.08589e-21)
(-0.00124699 0.00166099 2.17575e-21)
(-0.00299334 0.00364654 7.00868e-23)
(-0.000183982 0.00156186 -4.81378e-22)
(-0.000733589 0.000627407 -9.05296e-25)
(-0.00107445 -0.00245547 1.24631e-22)
(-0.000924914 -0.00647152 3.7232e-22)
(-0.00047186 -0.00914325 7.63064e-24)
(-6.50578e-05 -0.00571585 -2.28171e-23)
(-0.000153532 -0.00212481 -1.77042e-24)
(-0.000429854 -0.00111923 -1.74499e-21)
(-0.000522258 0.000776103 -5.26115e-22)
(-0.0013114 0.00157468 0)
(-0.003099 0.00885751 1.51254e-21)
(0.000309789 0.00125333 -2.58709e-22)
(-3.77814e-05 0.00142024 2.56509e-22)
(-0.000309958 0.000734365 1.28395e-22)
(-0.000423314 -0.00141526 0)
(-0.000262671 -0.00347676 -1.22033e-22)
(-6.30223e-05 -0.00286996 1.71462e-23)
(0.000188362 -0.00240169 8.27074e-22)
(5.1823e-06 -0.00205302 3.33563e-22)
(-0.000153338 -0.00123369 1.96514e-22)
(-0.000165463 0.000266558 5.35145e-23)
(-0.000322348 0.000554177 -6.1327e-23)
(-0.000445256 0.00204463 1.08894e-21)
(0.000260683 0.000453829 1.0812e-21)
(0.00020398 0.00107063 -4.04675e-22)
(8.86039e-06 0.00117432 -2.63978e-22)
(-0.000106352 0.000658299 -1.28487e-22)
(-0.000111618 -0.000674023 0)
(-3.83358e-05 -0.00105527 -1.12833e-23)
(0.00045439 -0.00177124 0)
(0.000158129 -0.0020718 -2.86142e-22)
(4.07535e-05 -0.0017333 -9.85836e-22)
(-3.53053e-05 -0.00105373 3.21147e-22)
(-2.08468e-05 1.69778e-05 -3.5763e-22)
(-1.17599e-05 1.95097e-05 9.63764e-24)
(0.000453364 0.000162084 -4.69701e-22)
(0.000146849 0.000344014 7.16053e-22)
(0.000116906 0.000837377 -6.92836e-22)
(1.69355e-05 0.000861023 1.32347e-22)
(-1.78106e-05 0.000453685 0)
(-1.07361e-05 -0.000172459 1.11564e-23)
(0.000339605 -0.000612281 0)
(0.00027565 -0.00147299 5.50215e-22)
(0.000100442 -0.00163029 7.16127e-22)
(3.40948e-05 -0.00127797 9.39077e-22)
(8.00062e-06 -0.00069754 -3.3343e-22)
(9.45191e-06 -3.93442e-05 -2.20127e-23)
(0.00100638 0.000232243 -5.60754e-22)
(0.000327588 8.88817e-05 0)
(7.23985e-05 0.000238971 5.14219e-22)
(5.53389e-05 0.00058493 0)
(1.36028e-05 0.000516243 0)
(5.52965e-06 0.000169696 0)
(0.000630306 -0.000201278 6.26966e-22)
(0.000185077 -0.000465709 -5.69091e-22)
(0.000148034 -0.00112583 -5.59875e-22)
(5.17187e-05 -0.00114487 -4.17895e-22)
(2.20635e-05 -0.000765874 -4.34488e-22)
(1.2561e-05 -0.000249206 1.31036e-23)
(0.00140428 0.000124867 0)
(0.000811031 0.000134302 1.40536e-22)
(0.00021936 4.41067e-05 0)
(2.82584e-05 0.000148134 2.01977e-27)
(1.92543e-05 0.000334613 0)
(7.97448e-06 0.000166896 -8.97842e-23)
(0.00154012 -1.5098e-05 0)
(0.00133955 -0.000213589 -5.6586e-22)
(0.00046306 -0.000114267 -1.57898e-22)
(8.80549e-05 -0.000323341 2.91786e-22)
(6.69063e-05 -0.000771158 -4.14856e-22)
(2.23008e-05 -0.000659501 -1.31415e-22)
(1.15145e-05 -0.000247987 9.15125e-23)
(0.00113726 7.08226e-05 -1.88732e-23)
(0.000608622 6.99252e-05 -2.10175e-22)
(0.000132911 1.7338e-05 0)
(5.72701e-06 7.44353e-05 -1.08185e-22)
(5.14147e-06 9.86338e-05 9.05732e-23)
(0.00124479 -1.12228e-05 2.09846e-24)
(0.00107683 -0.000127172 6.35479e-22)
(0.000315747 -5.75358e-05 -4.94544e-27)
(3.37013e-05 -0.000200646 1.31371e-25)
(2.20724e-05 -0.000432927 -2.65217e-22)
(8.86898e-06 -0.000200396 8.36027e-23)
(0.000861106 3.66917e-05 1.48549e-22)
(0.000413665 3.1097e-05 1.02531e-22)
(6.6272e-05 3.48878e-06 -1.26132e-22)
(-8.99035e-07 1.7445e-05 2.3e-23)
(0.000941976 -7.1067e-06 2.09394e-24)
(0.000809227 -6.86194e-05 -1.4056e-22)
(0.000195151 -2.29871e-05 4.53996e-22)
(6.66789e-06 -0.000101172 -2.12698e-22)
(5.59038e-06 -0.000123283 3.38538e-26)
(0.000592235 1.64351e-05 0)
(0.000233604 1.04083e-05 1.13798e-22)
(1.59589e-05 -8.26611e-07 7.966e-23)
(0.000648056 -4.1365e-06 0)
(0.000551692 -3.16748e-05 -2.05622e-22)
(9.93987e-05 -4.86109e-06 3.95781e-22)
(-1.11732e-06 -2.37693e-05 4.39573e-23)
(0.000340452 5.68739e-06 -9.70765e-25)
(7.15581e-05 2.56324e-06 -1.42996e-22)
(0.00037289 -2.23618e-06 9.69503e-25)
(0.000312865 -1.12803e-05 -1.1399e-22)
(2.46804e-05 9.15275e-07 1.12897e-22)
(0.000110734 1.48186e-06 4.33746e-23)
(0.000121499 -1.10476e-06 0)
(9.65283e-05 -3.26161e-06 -1.09927e-23)
(-0.14285 0.303927 2.22476e-21)
(-0.0270359 0.258808 5.09484e-22)
(-0.041868 0.127976 0)
(-0.0753489 0.189 2.78843e-21)
(-0.0629332 0.193853 -2.94668e-21)
(-0.0731426 0.267766 0)
(-0.0374344 0.310833 0)
(-0.0981706 0.352943 -1.02631e-21)
(-0.0851993 0.313806 0)
(-0.0390747 0.266311 -1.88516e-21)
(0.151741 0.126418 4.23674e-21)
(-0.0956671 0.278177 0)
(-0.0337268 0.0635151 -3.66102e-22)
(-0.0559394 0.10486 0)
(-0.0161682 0.0192357 -3.82283e-21)
(-0.0384778 0.0468362 3.91205e-21)
(-0.0829274 0.121128 -2.27296e-21)
(-0.114536 0.15857 0)
(-0.0953314 0.202755 0)
(-0.11912 0.239327 6.18762e-22)
(-0.109151 0.294789 0)
(-0.0979373 0.288953 1.95893e-21)
(-0.0160886 0.193811 2.3701e-21)
(0.0939582 0.155025 -5.71693e-21)
(0.301759 0.0907857 1.12305e-21)
(-0.150031 0.23409 -5.90404e-22)
(-0.140986 0.251347 0)
(-0.0215395 0.0120281 -3.16357e-21)
(-0.0490474 0.0285247 8.66524e-22)
(-0.0605545 0.0519268 7.21401e-22)
(-0.0910024 0.0814142 2.3111e-21)
(-0.120956 0.0800901 -4.45194e-21)
(-0.166725 0.114442 -3.93811e-21)
(-0.158964 0.155763 -3.00979e-21)
(-0.184247 0.184061 5.63783e-21)
(-0.131701 0.207439 -1.64226e-21)
(-0.061096 0.183013 -1.71404e-21)
(0.0415762 0.127451 0)
(0.385554 0.0499063 -5.74606e-21)
(0.188806 0.105742 0)
(0.420986 0.0292052 0)
(0.241057 0.0585259 4.83583e-21)
(-0.206597 0.171059 0)
(-0.179406 0.178076 0)
(-0.0114684 -0.276914 6.04211e-21)
(-0.146502 -0.329742 0)
(0.383868 -0.0828922 0)
(0.432522 0.0143019 -1.97151e-22)
(0.269526 0.0332192 0)
(0.265647 -0.0934423 0)
(0.452581 -0.037163 1.18512e-21)
(0.453779 0.0015916 3.70095e-21)
(0.291368 0.00807907 0)
(0.314986 -0.0437192 0)
(0.469267 -0.0151251 0)
(0.319582 -0.0148848 -3.75785e-21)
(-0.0637263 0.022388 1.15141e-21)
(-0.0969296 0.0357212 -1.44837e-21)
(-0.119867 0.0481542 4.7621e-21)
(-0.172331 0.054043 0)
(-0.201064 0.0839444 0)
(-0.230153 0.0939167 -3.10971e-21)
(-0.248421 0.118109 -2.36562e-21)
(-0.153529 0.137132 0)
(0.0647082 0.0790921 3.34886e-21)
(-0.0374192 0.11634 0)
(0.147696 0.0423831 0)
(0.00155977 0.0665854 -3.62164e-21)
(-0.265887 0.103994 7.85784e-21)
(-0.228987 0.110799 -2.32158e-21)
(-0.0126591 -0.263261 -3.40962e-21)
(0.170534 -0.137084 7.67642e-21)
(0.144822 -0.156157 -6.00963e-21)
(-0.115595 -0.38573 1.70593e-21)
(-0.0786432 -0.327558 -3.71372e-21)
(-0.0367641 -0.358686 2.43895e-22)
(0.0451193 -0.18214 -6.36739e-21)
(0.0477098 -0.152157 2.08806e-21)
(0.145355 -0.108789 3.23178e-21)
(0.128371 0.00929114 0)
(0.0210672 0.0366421 0)
(0.081332 -0.0930171 -3.56167e-21)
(0.183955 -0.056567 0)
(0.0951729 -0.0457589 -3.32107e-21)
(0.194582 -0.0210874 3.02856e-21)
(0.0557095 -0.0102438 4.61597e-21)
(-0.0966821 0.0159424 1.65642e-21)
(-0.140026 0.0244789 0)
(-0.166871 0.0337644 0)
(-0.211554 0.0392163 3.29078e-21)
(-0.242869 0.057497 0)
(-0.271528 0.0581843 8.2777e-21)
(-0.291993 0.0737243 -7.07249e-21)
(-0.111775 0.0522718 0)
(-0.134483 0.0668599 -5.68279e-21)
(-0.223421 0.0847113 1.1576e-20)
(-0.19728 0.0380984 0)
(-0.291168 0.0724412 -7.4827e-21)
(-0.303465 0.066582 -3.99243e-21)
(-0.0877821 -0.312784 0)
(-0.0732381 -0.246036 7.73332e-21)
(-0.0722745 -0.241104 0)
(-0.0648254 -0.320582 -5.27871e-22)
(-0.091312 -0.323115 4.14586e-22)
(-0.104948 -0.239511 -7.94231e-21)
(-0.0639141 -0.186418 -7.2988e-21)
(-0.0941827 -0.160397 9.70578e-21)
(-0.0418397 -0.114389 2.99557e-21)
(-0.108183 -0.0818441 -3.92317e-21)
(-0.0554581 -0.0520341 0)
(-0.0821572 -0.0183975 -3.19078e-21)
(-0.175148 0.00957765 0)
(-0.122349 0.0129089 0)
(-0.16603 0.0193348 -1.28443e-21)
(-0.195981 0.0249912 -5.03126e-21)
(-0.229634 0.031035 4.31533e-21)
(-0.257994 0.0413359 -1.53512e-21)
(-0.275924 0.0431818 -1.97057e-21)
(-0.303713 0.0544983 6.23718e-21)
(-0.277045 0.0443565 -6.95855e-21)
(-0.29941 0.0590028 8.4838e-21)
(-0.26409 0.0142389 0)
(-0.296913 0.0374373 -1.19168e-21)
(-0.31727 0.0589903 0)
(-0.31012 0.0540289 0)
(-0.0467 -0.171333 -1.23781e-20)
(-0.08979 -0.245537 4.26964e-21)
(-0.110448 -0.25498 5.15859e-21)
(-0.123166 -0.284926 -7.11079e-22)
(-0.139796 -0.255639 6.56015e-22)
(-0.173876 -0.20605 -7.47019e-21)
(-0.177203 -0.167256 0)
(-0.197627 -0.110557 -9.34299e-21)
(-0.277512 0.0164471 -4.39618e-21)
(-0.237772 -0.0804544 6.79721e-21)
(-0.273149 -0.0187327 2.80415e-21)
(-0.133924 0.0112465 4.52984e-21)
(-0.289994 0.0508249 2.70247e-21)
(-0.171205 0.0173573 -3.23636e-21)
(-0.196262 0.0225552 -2.80131e-21)
(-0.222896 0.0302389 -6.06684e-21)
(-0.257588 0.0382873 1.35742e-21)
(-0.266558 0.0422371 -3.43832e-21)
(-0.289783 0.043682 -2.70142e-21)
(-0.313689 0.0579056 6.73684e-22)
(-0.309372 0.0488795 1.23414e-21)
(-0.269673 0.0564493 4.8209e-21)
(-0.286218 0.0545171 1.99955e-21)
(-0.296835 0.0616829 -1.28095e-21)
(-0.288992 0.0585465 -1.92141e-21)
(-0.237131 0.0619696 -6.67887e-21)
(-0.038435 -0.102568 0)
(-0.0621553 -0.16241 8.28347e-21)
(-0.178354 0.0637962 0)
(-0.21629 0.0534032 4.37853e-21)
(-0.1172 0.0595666 8.47252e-21)
(-0.142387 0.0562277 -5.5946e-21)
(-0.0855096 -0.177262 0)
(-0.125222 -0.216807 -4.90376e-21)
(-0.162345 -0.19411 1.50101e-20)
(-0.214479 0.0273039 -5.83746e-21)
(-0.241037 0.00796945 4.62213e-21)
(-0.178309 -0.15334 -1.07054e-20)
(-0.228611 -0.0751019 1.13863e-22)
(-0.218999 -0.0462985 -9.42971e-21)
(-0.133819 0.0113785 0)
(-0.261446 0.0507845 0)
(-0.240958 0.0381401 2.60185e-22)
(-0.246248 0.0446361 -3.55117e-22)
(-0.166558 0.0194547 -5.03585e-21)
(-0.194125 0.0254781 5.35537e-21)
(-0.212019 0.0303398 4.64569e-21)
(-0.279476 0.0672839 1.83268e-21)
(-0.271514 0.0668572 -4.172e-22)
(-0.24212 0.0745136 3.63563e-21)
(-0.223074 0.0736369 1.32618e-21)
(-0.254266 0.0551093 -5.48361e-21)
(-0.259565 0.0691994 1.99448e-23)
(-0.266403 0.0613774 4.68222e-21)
(-0.196596 0.0792597 2.29951e-21)
(-0.172014 0.0777173 -7.5018e-21)
(-0.116455 0.0708618 2.88169e-21)
(-0.141216 0.0779939 2.38131e-21)
(-0.0929173 0.0687213 -3.36485e-21)
(-0.0557178 0.0509008 0)
(-0.0735629 0.0571992 2.79566e-21)
(-0.0889602 0.0530774 -2.39891e-22)
(-0.0806294 0.0456657 0)
(-0.0242796 -0.0532946 -4.20035e-21)
(-0.0480893 -0.0924504 4.10957e-21)
(-0.0582605 -0.099701 2.88915e-21)
(-0.093663 -0.134495 0)
(-0.104127 0.0308178 1.02023e-20)
(-0.136925 0.0330835 0)
(-0.164286 0.018183 5.66257e-21)
(-0.119176 -0.112952 1.30709e-22)
(-0.148452 -0.0259086 1.53392e-21)
(-0.149147 -0.120809 -4.2218e-21)
(-0.176295 -0.054435 8.47019e-21)
(-0.013433 -0.0247115 -4.96546e-22)
(-0.024691 -0.0419723 0)
(-0.12392 0.0104009 0)
(-0.0837223 0.0036617 -5.16148e-22)
(-0.101206 0.00480199 5.20307e-22)
(-0.219537 0.042627 -3.01415e-21)
(-0.229845 0.0523283 2.64976e-21)
(-0.147414 0.0160272 0)
(-0.181569 0.0247463 -2.46238e-21)
(-0.197324 0.0339427 2.96463e-21)
(-0.19455 0.0835518 1.24139e-21)
(-0.2342 0.07405 -2.01968e-21)
(-0.227674 0.0788676 -2.56213e-21)
(-0.214203 0.0582076 -3.41455e-21)
(-0.214376 0.0692368 6.76918e-22)
(-0.172147 0.0815695 0)
(-0.144384 0.0817149 0)
(-0.131057 0.0801873 0)
(-0.104177 0.0769362 -2.973e-21)
(-0.0849897 0.070558 -1.67344e-21)
(-0.0654758 0.0641623 3.98505e-21)
(-0.0489633 0.0526354 0)
(-0.00752018 0.0142014 0)
(-0.00480946 0.00942227 -6.66536e-22)
(-0.0137808 0.0252748 3.59091e-21)
(-0.0220967 0.0340736 -3.14784e-21)
(-0.0352033 0.0457697 0)
(-0.0249461 0.0320461 -5.84865e-21)
(-0.0379986 0.0392104 3.62765e-23)
(-0.0103285 0.0151753 0)
(-0.0141317 0.0197813 -4.5936e-21)
(-0.00471377 0.00593751 0)
(-0.0401321 0.034583 1.2904e-23)
(-0.0575846 0.0390581 1.97057e-23)
(-0.0566792 0.0297322 3.55345e-21)
(-0.0891927 0.0253104 -4.32485e-21)
(-0.0350894 -0.0466189 8.81693e-21)
(-0.0585593 -0.0649036 -1.85578e-20)
(-0.0856605 -0.0649198 3.95328e-21)
(-0.0845292 0.0089719 -2.27953e-21)
(-0.0934598 -0.0365862 8.37976e-21)
(-0.113436 -0.0216461 -5.8875e-21)
(-0.00661759 -0.00735778 0)
(-0.0125393 -0.0154461 0)
(-0.0155197 -0.0167066 -3.64767e-21)
(-0.0310148 -0.0277294 -5.33581e-21)
(-0.0040551 0.00668809 5.64008e-22)
(-0.115556 0.01004 1.25922e-21)
(-0.0684862 0.000726141 0)
(-0.0858646 0.00266246 -1.10175e-21)
(-0.143731 0.0284111 1.49751e-21)
(-0.170023 0.0363576 -4.47029e-21)
(-0.185341 0.0533479 -7.94768e-23)
(-0.1587 0.065868 4.05317e-21)
(-0.177466 0.0737524 -4.75551e-21)
(-0.16513 0.0789918 3.23503e-21)
(-0.0964512 0.0767663 -3.92649e-21)
(-0.125352 0.0758444 6.07481e-23)
(-0.122737 0.0803262 1.11082e-21)
(-0.0360397 0.0515706 4.0373e-21)
(-0.0550093 0.0626036 -4.29263e-23)
(-0.0765042 0.0696799 1.95707e-21)
(-0.0108132 0.0265651 1.76239e-21)
(-0.0265463 0.0435673 -2.13603e-21)
(-0.00611536 0.0172408 -1.58407e-21)
(-0.0158882 0.0182817 5.2281e-21)
(-0.0251516 0.0235611 0)
(-0.00479745 0.00522438 4.10784e-21)
(-0.00704989 0.00770076 -7.26022e-21)
(-0.00212689 0.000710575 0)
(-0.00218528 -0.000231188 0)
(-0.00437727 -0.00268366 -1.15562e-21)
(-0.0256409 0.0192133 5.23857e-21)
(-0.039623 0.0214163 -1.50734e-23)
(-0.0394981 0.01415 -1.07772e-20)
(-0.060677 0.00758732 1.08809e-20)
(-0.0373533 -0.0176182 3.8092e-21)
(-0.0521313 -0.0172795 -3.09099e-21)
(-0.0458844 -0.00240488 -3.80741e-21)
(-0.00633067 -0.00358103 7.1731e-22)
(-0.0125697 -0.00744043 2.03438e-21)
(-0.0205535 -0.00681329 1.40885e-21)
(-0.00491741 0.0130527 -3.04359e-21)
(-0.028468 0.0481618 0)
(-0.0600414 0.0621578 0)
(-0.0910436 0.0350889 3.94798e-21)
(-0.106304 0.0538544 -2.76753e-21)
(-0.0986023 0.0652869 0)
(-0.0217729 0.00253913 3.07332e-23)
(-0.0612303 0.0144428 0)
(-0.00974671 0.0300728 -1.03387e-22)
(-0.000911434 0.00114855 -6.08598e-22)
(-0.000298193 0.0015617 2.99347e-21)
(-0.0088576 0.00722396 7.49312e-21)
(-0.0140613 0.0107584 0)
(-0.00151656 -0.000221733 -3.39594e-21)
(-0.00330604 0.00123173 -1.07809e-20)
(-0.000498038 -0.00178051 5.95179e-21)
(-0.00145866 0.000849153 4.21803e-22)
(-0.00524839 -0.00125901 0)
(-0.0151994 0.00632586 0)
(-0.0246116 0.00799424 0)
(-0.0270129 0.000633906 0)
(-0.00729093 -0.00104112 4.81287e-21)
(-0.0156713 -0.00311883 -4.11247e-21)
(-0.0178283 0.000586506 0)
(-0.00128364 0.0096494 0)
(-0.000611784 0.00113012 2.72213e-21)
(0.000444066 0.00135266 -6.82798e-21)
(0.000462486 0.00153128 1.18851e-20)
(0.000391766 0.00133069 -7.18295e-21)
(0.000704547 0.000999612 -2.33836e-21)
(0.000386186 0.000530661 0)
(-0.00305912 0.000515836 3.51694e-21)
(-0.00647202 0.00183712 0)
(7.72831e-05 -0.00232706 0)
(-0.000315565 -0.00179518 0)
(0.000164724 -0.00251843 -1.29416e-21)
(-0.00104174 0.000671885 2.23553e-21)
(-0.00322854 0.000421097 0)
(-0.002609 0.000412943 6.76674e-21)
(-0.00461706 0.00107921 1.78956e-21)
(-0.00594609 0.00159141 -6.74886e-21)
(0.000825041 0.00109263 0)
(0.000366731 0.000950368 5.27816e-21)
(0.00099513 0.000852919 8.56078e-21)
(0.00114327 0.000972985 -9.7101e-21)
(0.000564955 0.000285488 -1.74298e-22)
(0.000999416 0.000531219 7.23175e-21)
(0.000522399 -0.00174303 1.45244e-21)
(-8.83456e-05 -0.000846161 -1.08915e-21)
(0.000631388 -0.00194984 -8.36348e-21)
(0.000786202 -0.00223383 1.14281e-20)
(0.000958553 -0.00204522 0)
(0.000843292 0.000745107 -5.35709e-21)
(0.000109641 0.000776808 -7.84171e-21)
(0.00117449 8.51387e-05 1.16263e-20)
(0.00111554 -0.00069864 0)
(0.000911601 -0.00125309 0)
(0.00050191 -0.000707845 4.4589e-21)
(0.00153156 0.000681308 3.35679e-21)
(0.00158349 0.000669558 -5.9537e-21)
(0.00118662 0.000375493 -1.30451e-22)
(0.00153524 0.000492778 1.73843e-24)
(0.00132611 -0.00110918 0)
(0.00160401 -0.00130765 1.94998e-21)
(0.00177363 -0.000826289 -1.68459e-21)
(0.00202933 0.000247545 -4.07053e-24)
(0.00199312 -0.000413243 7.99622e-22)
(0.00192761 -6.8804e-05 6.32095e-21)
(0.000765515 -0.000330042 -5.91045e-21)
(0.00136639 -0.000628872 0)
(0.00166032 0.000213354 -8.82955e-21)
(0.00198697 0.000181953 4.20958e-21)
(0.00183082 -1.56107e-05 4.48244e-21)
(0.00160583 -0.00035128 0)
(0.00190988 -0.000353379 -4.91089e-21)
)
;

boundaryField
{
    movingWall
    {
        type            fixedValue;
        value           uniform (1 0 0);
    }
    fixedWalls
    {
        type            noSlip;
    }
    frontAndBack
    {
        type            empty;
    }
    defaultFaces
    {
        type            empty;
    }
}


// ************************************************************************* //
