/*--------------------------------*- C++ -*----------------------------------*\
  =========                 |
  \\      /  F ield         | OpenFOAM: The Open Source CFD Toolbox
   \\    /   O peration     | Website:  https://openfoam.org
    \\  /    A nd           | Version:  8
     \\/     M anipulation  |
\*---------------------------------------------------------------------------*/
FoamFile
{
    version     2.0;
    format      ascii;
    class       volScalarField;
    location    "14000";
    object      p;
}
// * * * * * * * * * * * * * * * * * * * * * * * * * * * * * * * * * * * * * //

dimensions      [0 2 -2 0 0 0 0];

internalField   nonuniform List<scalar> 
4109
(
-0.00552571
-0.0177857
-0.00879493
-0.028762
-0.0299027
-0.0185355
-0.0287143
-0.0146654
-0.0392323
-0.0397029
-0.0390236
-0.0429671
-0.00912941
-0.0228963
-0.0317834
-0.0463744
-0.0507379
-0.046747
-0.0451162
-0.0419974
-0.00271886
-0.0324531
-0.0327671
-0.0537998
-0.054644
-0.0622788
-0.0030426
-0.00826533
-0.0055962
-0.0520833
-0.0456149
-0.0470695
-0.0299945
-0.0869034
-0.0618491
-0.0572755
-0.06228
-0.0762975
-0.0165436
-0.00504667
-0.000188698
-0.0132557
0.000367452
-0.0561601
-0.0518659
0.0902538
-0.055866
-0.0471421
-0.0550943
-0.0764573
-0.068345
-0.0659189
-0.0717173
-0.0884915
-0.0239827
-0.010974
-0.00520108
0.0150033
-0.00959586
-0.0210376
-0.0678269
0.0650766
-0.0617064
-0.0562624
-0.0523748
-0.0337378
-0.0585409
-0.0519959
-0.0577842
-0.0537277
-0.105419
-0.0804848
-0.125727
-0.125611
-0.127192
-0.0299793
-0.0327782
-0.0231678
-0.0123395
-0.0206199
-0.0118106
-0.0150883
-0.016025
-0.0261985
0.0156257
-0.206775
0.123729
-0.236297
-0.00807697
-0.0812769
-0.0713071
-0.0615839
-0.055783
-0.0534121
-0.0541338
0.0316162
-0.053097
-0.0620712
-0.125481
-0.108884
-0.0979357
-0.139535
-0.137422
-0.145652
-0.151154
-0.0344603
-0.0374519
-0.0399367
-0.0230774
-0.00478568
0.0639263
-0.0153898
-0.0156416
-0.0236853
-0.0302479
-0.578993
0.112111
0.0118594
-0.00553223
-0.309748
-0.120373
0.261524
-0.0883537
-0.0778312
-0.0696239
-0.0563268
-0.0551191
-0.0465143
-0.0744625
-0.0633445
-0.0570134
-0.119952
-0.111701
-0.148662
-0.133541
-0.178192
-0.16658
-0.041631
-0.0476005
-0.0504562
-0.0340479
0.00851421
0.0595565
-0.0129806
-0.0243355
-0.027191
-0.0345707
0.0879514
0.0819948
-0.215382
-0.100531
-0.137554
0.0954177
-0.0863026
-0.084227
-0.0757736
-0.0601874
-0.0486894
-0.0438086
-0.0396935
-0.00611346
-0.0287016
-0.109039
-0.10006
-0.148137
-0.123461
-0.166356
-0.181522
-0.214809
-0.0520215
-0.0581435
-0.062789
-0.0509464
0.00794761
0.0295367
-0.0199103
-0.023779
-0.0259445
-0.0428231
0.0191591
-0.158092
0.0161551
-0.0697572
-0.083872
-0.0218762
-0.0804079
-0.0853488
-0.0724162
-0.0459558
-0.0461261
-0.0282022
-0.0139232
-0.0107789
-0.0931211
-0.100529
-0.138647
-0.112033
-0.157502
-0.185371
-0.216399
-0.256868
-0.0663488
-0.0725272
-0.0757061
-0.0670684
-0.0157637
0.00394721
-0.010124
-0.0119761
-0.0242134
-0.0568329
-0.0928766
-0.103698
-0.0847553
-0.0155
-0.0944062
-0.0463064
-0.076894
-0.0782854
-0.0945665
-0.0488079
0.0960055
0.066725
-0.080843
-0.086022
-0.127755
-0.0967949
-0.147385
-0.178886
-0.215673
-0.256428
-0.302698
-0.0824995
-0.0866961
-0.0873137
-0.0801271
-0.00856791
0.0293782
0.0098853
0.0131885
-0.0990089
-0.0381947
-0.0736367
-0.0639124
-0.063125
0.0544976
-0.138894
-0.208993
-0.0526315
-0.0851226
-0.060482
-0.0901659
0.0603696
0.0674206
-0.0633888
-0.0656024
-0.111678
-0.076767
-0.131077
-0.169904
-0.206591
-0.24916
-0.298447
-0.349643
-0.104267
-0.0951139
-0.0918643
-0.116356
0.0209359
0.101264
-0.0173424
-0.113257
-0.0906885
-0.06168
-0.175264
-0.129536
-0.231289
0.0633961
-0.197167
0.010048
1.07772
-0.0566353
-0.0103636
-0.337661
-0.0965701
-0.0537021
-0.0291809
-0.086335
-0.0444084
-0.108924
-0.153066
-0.196148
-0.237434
-0.285904
-0.333455
-0.370425
-0.383111
-0.113598
-0.116871
-0.108245
-0.134142
-0.13055
0.0197585
0.100826
-0.0554354
-0.107505
-0.0842405
-0.0651206
-0.222393
-0.0284586
-0.0484703
0.402585
0.0500355
1.0836
1.12334
1.13586
1.02827
1.02852
0.970105
-0.66174
-0.249238
-0.148225
-0.112598
0.0145968
-0.0465184
-0.0388384
-0.0806485
-0.132075
-0.178125
-0.371184
-0.226171
-0.272014
-0.32245
-0.394601
-0.400861
-0.411651
-0.38662
-0.136953
-0.136481
-0.153438
-0.148474
-0.125114
-0.0256613
-0.0109652
-0.090993
-0.103954
0.335313
0.118043
1.0125
-0.105106
1.19947
1.1632
1.16928
1.07738
1.1963
1.21827
-0.314906
-0.36247
-0.329534
0.946342
0.921671
0.992718
0.909318
1.01622
0.109326
0.164559
0.160889
0.0233625
-0.0274717
-0.399242
-0.104773
-0.109039
-0.155197
-0.204859
-0.360137
-0.260978
-0.310934
-0.437807
-0.419136
-0.424818
-0.43772
-0.427421
-0.438058
-0.166542
-0.159471
-0.174343
-0.165298
-0.14207
-0.12275
-0.0967278
-0.153517
-0.104157
0.778442
0.616073
1.24442
1.23168
1.15581
1.27665
1.30526
-0.247501
-0.192618
-0.195094
-0.484592
-0.319604
0.826839
0.811846
0.842248
0.941755
1.08247
-0.0894039
0.445941
0.435812
0.0322697
-0.0789194
-0.394402
-0.420996
-0.114617
-0.130985
-0.173795
-0.234383
-0.354391
-0.302839
-0.473114
-0.451158
-0.484226
-0.47472
-0.518208
-0.597507
-0.197964
-0.185769
-0.120214
-0.203177
-0.178692
-0.158327
-0.138519
-0.223507
-0.108751
-0.0778337
-0.104863
-0.263163
1.2046
1.32554
1.32262
1.23106
1.3707
1.40675
-0.797886
-0.0186661
0.187748
-0.081523
-0.0975541
0.629358
0.410052
-0.313764
-0.168857
0.716085
0.842475
0.987372
1.16472
-0.155546
0.0239459
0.132113
-0.0273984
-0.101702
-0.401076
-0.445917
-0.12889
-0.144116
-0.191755
-0.269493
-0.35452
-0.528417
-0.491488
-0.552979
-0.553584
-0.655198
-0.867485
-0.232015
-0.244845
-0.216084
-0.12312
-0.134703
-0.174525
-0.194039
-0.150593
-0.24535
-0.215857
-0.52198
-0.250629
-0.239665
-0.0476061
1.24973
1.2332
1.16505
1.4286
1.42526
1.32432
1.48541
1.53886
-0.63227
-1.19527
0.0451322
0.200085
0.0719222
0.402519
0.58403
-0.0993092
0.0131097
0.711464
0.870311
1.07775
1.27786
-0.257193
-0.225661
-0.229388
-0.0576284
-0.0470169
-0.101427
-0.414409
-0.477171
-0.136596
-0.160727
-0.225733
-0.323346
-0.53995
-0.597695
-0.64384
-0.667028
-0.869542
-1.17158
-1.45096
-0.269961
-0.282541
-0.145868
-0.140794
-0.165302
-0.18539
-0.209584
-0.281922
-0.242627
-0.202824
-0.0788265
0.366289
1.32518
1.30186
1.23935
1.06962
1.16143
1.54942
1.55031
1.43794
1.5993
1.63051
-0.394074
-0.998002
-1.71259
0.550423
0.253357
0.35301
0.129573
0.184638
0.730931
0.967131
1.2242
1.41104
0.302489
-0.185734
-0.252242
-0.261363
-0.101227
-0.0213725
-0.0521121
-0.394125
-0.477966
-0.198576
-0.13527
-0.285773
-0.568055
-0.663922
-0.756189
-0.829893
-1.09984
-1.38822
-1.76775
-2.05771
-0.315445
-0.320899
-0.120911
-0.147971
-0.166128
-0.187298
-0.223684
-0.318077
-0.283438
-0.244963
-0.0487632
0.0238336
1.43139
0.967521
1.34118
1.27435
1.1469
1.67598
1.68029
1.56763
1.72198
1.73571
1.70103
-0.110604
-2.17651
-0.695827
-1.36906
0.336932
0.547736
0.369426
0.824665
1.15456
1.38459
1.56176
0.028079
-0.113831
-0.173975
-0.141649
-0.0751126
0.0938084
0.0347142
-0.481419
-0.371581
-0.264359
-0.182542
-0.601673
-0.736797
-1.00267
-0.872923
-1.3075
-1.96685
-1.62626
-2.26186
-2.49949
-0.359694
-0.356638
-0.355836
-0.134787
-0.155885
-0.195396
-0.246949
-0.321123
-0.282386
-0.087295
-0.0734172
1.55463
1.43127
0.822693
0.955402
1.33488
1.21892
1.04385
1.79429
1.78934
1.70841
1.84535
1.83969
1.81612
0.15901
-2.72852
-0.336375
-1.78261
-0.950615
0.495036
0.65826
0.394109
1.02754
1.33413
1.55743
1.72953
0.0198871
-0.0204027
-0.0983379
-0.102047
0.0295519
0.178553
-0.00201919
-0.511218
-0.358689
-0.26867
-0.680304
-0.836035
-1.16722
-1.00313
-1.55539
-1.96324
-2.32558
-2.73457
-3.09647
-0.401042
-0.393651
-0.396166
-0.364876
-0.142146
-0.163256
-0.218444
-0.281097
-0.323231
-0.0768847
-0.0422317
1.67719
1.58239
1.51659
1.41408
0.634289
0.814911
0.925986
1.29195
1.15665
1.00518
0.421809
1.88402
1.87175
1.79037
1.85932
1.95432
1.91826
1.95413
0.0570202
-2.27475
-0.508275
-1.31441
0.656784
0.862513
0.429116
1.91236
1.22006
1.53079
1.75934
0.0454166
-0.0419796
-0.0820661
-0.0521951
-0.163657
0.0327912
0.0557769
-0.533534
-0.345544
-0.896023
-0.758158
-1.31818
-1.66335
-1.15499
-2.2112
-2.84214
-3.3625
-0.416378
-0.449942
-0.444818
-0.415591
-0.373237
-0.156916
-0.182167
-0.2544
-0.324442
-0.0772005
-0.0297815
-0.396721
-0.339722
1.69464
1.61853
1.50232
1.37909
0.643008
0.810967
0.944956
1.2325
1.08841
0.45599
0.207757
0.00813951
-0.160122
-0.274551
1.91012
1.94358
1.87818
1.79987
2.09514
2.00611
2.03617
1.9995
-0.0357368
-1.73914
-0.792566
1.04788
0.783647
0.641919
0.382256
2.20263
1.98313
1.44613
1.77984
0.0309399
-0.110786
0.0174284
0.498054
-0.351238
-0.049218
-0.724718
-0.4935
-1.5604
-1.15071
-1.92886
-2.78834
-3.50357
-0.46438
-0.490679
-0.474204
-0.433838
-0.378991
-0.177186
-0.220597
-0.303623
-0.0575384
-0.071416
-0.334155
-0.440559
-0.371232
1.71353
1.60558
1.47738
1.32183
0.66129
0.833985
1.00227
1.15634
0.496693
0.2544
0.333706
-0.331028
0.054982
-0.244591
-0.11412
1.89868
1.96435
1.81755
2.03562
2.24992
2.12652
2.08061
2.38119
-0.247312
-1.13997
1.28085
1.15693
1.02087
0.999467
0.319788
2.071
2.34311
1.78057
0.219006
0.148002
0.901277
0.566021
-0.251208
-0.391193
-0.877021
-0.564981
-1.67072
-2.56244
-3.49792
-0.519254
-0.532723
-0.505554
-0.451603
-0.36896
-0.228965
-0.280439
-0.0937283
-0.106912
-0.411173
-0.52032
1.83081
1.71824
1.58593
1.428
1.23784
0.691327
0.884124
1.05966
0.534762
0.378483
0.189015
-0.416282
-0.367458
0.0382932
-0.278249
-0.137603
1.92365
2.00359
1.94429
2.12132
2.55364
2.39876
2.23056
2.53041
1.94629
-0.483672
1.71643
1.59033
1.43843
0.9401
0.234294
2.36174
2.20593
2.52562
0.197996
0.635947
2.16062
0.458169
0.476489
-1.23386
-0.76859
-2.15794
-3.3366
-0.587168
-0.581786
-0.544792
-0.462384
-0.298124
-0.362552
-0.155629
-0.149187
-0.522067
-0.627738
1.83592
1.71172
1.5498
1.33436
1.13062
0.738707
0.935016
0.573594
0.381794
0.187561
-0.503717
-0.441375
-9.54577e-05
-0.334403
-0.183281
2.08318
2.02813
2.28244
2.93827
2.71578
2.73352
2.55293
2.00235
1.88052
1.55897
0.983392
2.28341
2.72037
3.0326
0.120919
0.849285
-0.1297
-0.198244
-1.6742
-0.963129
-2.98712
-0.655784
-0.64587
-0.590463
-0.295594
-0.454161
-0.346461
-0.648271
-0.720479
1.69369
1.84696
1.45791
1.20356
0.998075
0.783091
0.602911
0.394818
0.17088
-0.626456
-0.55489
-0.0558538
-0.432402
-0.262427
2.13716
2.23334
2.52586
3.24817
2.98168
2.83284
3.49451
2.04407
2.12891
1.73236
2.6685
3.11665
3.54148
-0.208306
0.0811311
0.121254
-0.195373
-2.39557
-1.35342
-0.746214
-0.717261
-0.487092
-0.603351
-0.621131
-0.760644
-0.842904
1.62979
1.82846
1.3212
1.07334
0.836886
0.638106
0.40154
0.140873
-0.753844
-0.685167
-0.120458
-0.550719
-0.357439
2.25259
2.42249
2.80864
3.51037
3.17258
3.92298
2.02894
2.44874
3.12974
3.71693
4.23603
-32.1653
-0.239844
0.284386
0.336259
-0.404354
-31.4253
-0.852599
-0.764844
-0.888937
-1.00598
-0.709749
-0.912196
-0.993555
1.75088
1.51175
1.1962
0.909872
0.689007
0.412006
0.105696
-0.924284
-0.853668
-0.198604
-0.699753
-0.475111
2.65355
2.34195
3.28944
3.97024
4.59807
2.52014
2.07507
-34.2451
-32.1656
-0.148242
0.149356
0.193375
-29.3945
-31.2999
-31.6625
-0.989231
-1.0401
-1.17265
-1.19773
-0.825217
-1.11775
-1.19057
1.71601
1.4132
1.03266
0.778846
0.42954
0.0512602
-1.17505
-1.09412
-0.311691
-0.638718
-0.906093
3.09138
3.9084
4.73255
2.93778
2.51668
2.07856
-35.2265
-34.3144
-32.1665
-0.504187
-28.8036
-31.0403
-33.8594
-30.8739
-1.32378
-1.49527
-1.54159
-1.34442
-1.43008
-1.46566
1.64083
1.24275
0.940852
0.469645
-0.00793709
-1.5672
-1.43733
-0.449288
-0.843332
-1.1768
3.75756
4.71409
2.85087
3.5092
2.52524
2.06849
-36.0622
-35.3734
-34.3483
-32.1505
-34.9216
-27.378
-28.562
-30.7876
-33.9954
-30.6623
-1.76598
-1.98097
-2.32072
-1.92797
-1.76937
-1.93929
1.5131
1.01684
0.453753
-0.103148
-2.15657
-1.86656
-0.628518
-1.10153
-1.5163
4.54673
3.21316
4.19952
2.76705
2.20173
-36.0721
-35.4982
-34.3648
-32.1302
-33.726
-35.1619
-27.5217
-27.3795
-28.4336
-30.5604
-33.9093
-30.6478
-2.30515
-2.89599
-2.43837
-2.5638
-2.7
1.60686
1.00458
0.376771
-0.258776
-2.53302
-2.25145
-0.862825
-1.40898
-1.8848
3.72352
3.13524
2.45466
-38.6442
-35.9468
-35.5847
-34.3747
-32.1071
-33.7947
-35.3247
-25.4104
-27.5601
-27.3488
-28.3416
-30.3532
-33.7841
-30.5677
-3.21665
-3.36486
-3.4116
-3.3628
1.74518
1.00905
0.259018
-0.473055
-3.13248
-2.76611
-1.15625
-1.77327
-2.31537
-41.4669
-38.7523
-35.83
-35.6464
-34.3863
-32.0845
-33.9304
-35.484
-24.9795
-25.4293
-27.5899
-27.3008
-28.2695
-30.168
-33.6402
-30.3997
-46.1333
-41.6608
-38.8256
-35.7427
-35.6916
-34.4002
-32.0615
-34.0444
-35.656
-21.0046
-25.1598
-25.4445
-27.5933
-27.274
-28.1978
-30.0491
-33.4921
-30.198
-48.7745
-45.9735
-41.7709
-38.8867
-35.684
-35.727
-34.4165
-34.1303
-35.845
-25.3356
-20.807
-25.2925
-25.4438
-27.5778
-27.2633
-28.1211
-33.3726
-93.9561
-48.3158
-45.9447
-41.8492
-38.9167
-35.6457
-35.7498
-34.1804
-36.0192
-20.0853
-26.1168
-20.8158
-25.3568
-25.4423
-27.553
-27.2692
-33.3192
-30.0636
-103.252
-47.1818
-46.0013
-41.9086
-38.9227
-35.6262
-34.1812
-21.6783
-20.2048
-26.9415
-20.845
-25.3814
-25.4428
-27.5279
-27.2761
-44.1824
-30.3363
-112.21
-45.9414
-46.0821
-41.9398
-38.9123
-34.1505
-20.9391
-21.745
-20.274
-27.7277
-20.8798
-25.3835
-25.4495
-27.5184
27.0557
-51.6487
-29.8759
-120.305
-44.6927
-46.1544
-41.9474
-38.8882
-20.8913
-20.8966
-21.8233
-20.3453
-28.4565
-20.9244
-25.3771
-25.4576
34.6283
30.021
-59.974
-29.2072
-127.445
-43.4316
-46.1587
-41.9313
-20.4723
-20.8357
-20.8562
-21.8784
-20.4312
-29.1627
-20.9533
-25.3861
47.194
35.6484
32.9752
-67.6787
-28.4336
-134.189
-42.2749
-46.0926
-20.4789
-20.4035
-20.7811
-20.8223
-21.9167
-20.5279
-29.8459
-20.9429
49.9512
48.0476
36.7065
35.1247
-74.6797
-27.536
-141.255
-41.4936
-20.9058
-20.4076
-20.3303
-20.728
-20.7966
-21.9448
-20.6225
-30.2717
49.9382
50.4966
48.9434
37.5812
36.9143
-81.5542
-26.7451
-146.581
-20.9539
-20.8478
-20.3328
-20.2624
-20.678
-20.7774
-21.9666
-20.6912
47.5943
50.5361
51.1026
49.6651
38.4394
38.606
-89.2098
-26.6203
-21.6921
-20.9085
-20.7918
-20.2638
-20.2025
-20.6329
-20.7617
-21.9811
34.8821
48.3307
51.1328
51.6522
50.246
39.3855
40.3361
-95.6867
-20.0386
-21.7632
-20.8672
-20.7371
-20.2029
-20.1506
-20.5978
-20.7502
27.4423
36.0289
49.1994
51.6764
52.1326
50.7292
40.3947
41.5819
-25.3322
-20.1234
-21.8423
-20.8326
-20.6851
-20.1503
-20.1122
-20.5807
-43.9314
30.5154
37.2381
49.9138
52.1557
52.5568
51.1055
41.0456
-21.0006
-26.1679
-20.1863
-21.8989
-20.8068
-20.6379
-20.1111
-20.0944
-30.2274
-51.6481
33.6144
38.2309
50.4933
52.5783
52.9104
51.324
-24.8933
-20.7936
-27.0045
-20.2537
-21.9391
-20.7876
-20.601
-20.093
-94.1787
-30.783
-60.1474
35.9184
39.1554
50.9681
52.9277
53.111
-25.3725
-25.0737
-20.795
-27.7901
-20.3342
-21.9699
-20.772
-20.583
-49.1848
-103.869
-30.4407
-67.9857
37.887
40.1113
51.3434
53.1247
-27.5304
-25.3968
-25.2012
-20.822
-28.5166
-20.4238
-21.9941
-20.7604
-45.901
-48.6731
-112.912
-29.8241
-75.1009
39.7889
41.0404
51.5582
-27.2701
-27.5554
-25.4122
-25.26
-20.857
-29.2195
-20.5134
-22.0099
-41.7583
-45.7627
-47.4894
-121.051
-29.0778
-82.1062
41.6221
41.5984
-30.6082
-34.3262
-27.2772
-27.5846
-25.413
-25.281
-20.9009
-29.8893
-20.5757
-38.4251
-41.9284
-45.7578
-46.2407
-128.246
-28.201
-89.7775
43.0593
-28.2531
-30.5408
-34.3563
-27.2457
-27.5899
-25.4129
-25.2775
-20.928
-30.3024
-33.98
-38.5479
-42.0248
-45.8293
-44.9828
-135.027
-27.4073
-96.2421
-34.7224
-31.0482
-27.9345
-30.6114
-34.2864
-27.1971
-27.5758
-25.4151
-25.2698
-20.9173
-33.8783
-38.6294
-42.0998
-45.922
-43.7197
-142.136
-27.3261
-35.0812
-35.898
-31.8392
-30.8487
-27.8162
-30.5667
-34.204
-27.1703
-27.5523
-25.4219
-25.2768
-35.3345
-34.1602
-33.9971
-38.6945
-42.1562
-46.0005
-42.5471
-147.488
-35.26
-35.946
-31.793
-30.5767
-27.7155
-30.435
-34.0949
-27.1635
-27.5289
-25.4308
-35.4193
-34.2359
-34.1242
-38.7278
-42.191
-46.0072
-41.803
-35.4072
-35.839
-31.7588
-30.336
-27.6407
-30.2468
-33.9771
-27.1677
-27.5192
-35.5369
-34.2437
-34.221
-38.7392
-42.2022
-45.9401
-35.5643
-35.7229
-31.7305
-30.1228
-27.5919
-30.0386
-33.8856
-27.1735
-35.6271
-34.2511
-34.2778
-38.73
-42.1881
-35.7381
-35.6341
-31.7029
-29.9252
-27.5412
-33.8507
-35.6914
-34.258
-34.2851
-38.7074
-35.9002
-35.576
-31.6738
-29.7549
-27.4754
-35.7386
-34.269
-34.2561
-35.5392
-31.6402
-29.6441
-35.7755
-34.2845
-35.5208
-31.617
-35.8004
-34.3012
-3.24483
-3.62947
-3.6814
-4.1949
-4.17257
-4.74153
-3.17424
-3.64063
-2.71784
-3.96059
-4.02744
-4.58034
-4.6694
-5.3327
-5.33411
-6.00108
-8.06071
-8.82771
-8.88907
-9.80391
-9.62548
-5.98108
-6.65788
-4.70993
-5.32853
-3.55873
-4.09084
-2.60518
-3.01621
-2.13395
-10.5553
-10.1889
-4.15172
-4.33845
-4.93434
-5.04158
-5.65365
-5.86941
-6.63311
-6.65888
-7.42368
-7.36496
-8.07559
-8.82494
-9.60925
-9.59872
-10.4382
-10.6188
-11.6202
-11.5139
-6.60185
-7.31699
-7.28412
-8.07356
-8.00499
-8.7933
-9.28038
-5.2135
-5.84417
-3.91155
-4.47319
-2.83431
-3.2651
-1.94093
-2.27176
-1.46031
-8.66248
-9.06325
-12.4826
-13.4032
-10.1232
-10.9125
-11.8779
-4.23578
-4.46981
-5.09257
-5.3334
-6.03157
-6.14105
-6.88323
-7.18079
-8.00866
-8.09133
-8.88658
-9.65823
-10.4989
-10.4548
-11.2934
-11.2477
-12.2146
-12.3811
-13.0828
-13.4068
-14.5053
-14.0141
-14.8876
-5.68544
-6.46939
-6.57647
-7.25406
-7.44673
-4.26677
-4.88732
-3.01028
-3.50484
-2.01444
-2.36063
-0.702615
-1.1843
-1.44838
-7.11609
-7.88712
-7.63497
-8.78444
-10.151
-14.4629
-12.5221
-13.9128
-11.382
-12.5494
-4.14832
-4.49674
-5.16128
-5.4552
-6.17889
-6.47783
-7.20811
-7.41074
-8.22287
-8.49571
-9.1776
-9.66031
-11.2026
-10.8253
-12.2267
-12.2409
-13.308
-13.233
-13.8693
-14.6554
-15.1185
-15.1779
-16.0918
-15.805
-15.6456
-16.2069
-16.3347
-17.5301
-4.9023
-5.72437
-5.32655
-6.04014
0.142405
-0.339736
-3.34894
-4.08118
-2.02711
-2.50681
-0.515432
-1.08489
-1.35519
1.03105
0.585557
-5.66298
-6.45293
-6.30607
-18.6669
-17.5987
-19.3007
-7.65772
-8.96592
-10.2595
-11.4376
-13.7214
-14.8545
-16.5249
-15.8651
-12.6902
-13.7765
-3.91241
-4.33701
-5.05594
-5.45701
-6.21563
-6.55364
-7.31439
-7.63675
-8.73352
-8.40607
-9.61455
-9.8109
-10.712
-11.2712
-12.8853
-12.3651
-13.8299
-13.9465
-14.63
-15.2061
-15.0749
-20.6277
-21.0387
-19.7845
-16.1793
-15.9489
-16.9371
-16.8965
-17.2516
-18.0574
-17.6464
-19.777
-19.0335
-29.4195
-30.1399
-29.7994
-32.4057
-31.2345
-30.7697
-30.9995
-30.6827
-3.67451
-4.25856
-3.71483
-4.40046
0.511
-0.0592363
-2.11493
-2.68931
-0.25277
-0.940046
-1.26556
1.92334
1.54965
1.57445
1.06429
-3.94202
-4.82686
-7.6598
-4.48515
-6.00734
-29.1136
-27.5408
-23.5005
-22.7415
-21.3627
-16.9776
-18.3707
-19.1383
-20.5897
-7.8756
-8.97808
-8.82978
-10.3626
-11.6939
-12.9981
-14.2992
-15.1221
-16.4945
-29.82
-30.7839
-32.3365
-30.6971
-32.1331
-33.7944
-32.643
-31.7984
-33.0613
-32.8835
-3.38872
-4.00679
-4.81738
-5.31551
-6.13898
-6.56682
-7.4807
-7.76984
-8.57003
-8.84793
-10.2388
-9.76964
-11.0921
-11.2494
-12.2629
-12.8358
-12.8749
-14.2125
-13.8033
-14.9748
-15.682
-15.6298
-16.653
-16.7324
-16.3685
-21.9853
-22.9038
-25.025
-24.1612
-21.6445
-20.731
-17.6749
-17.7542
-18.3589
-18.6266
-20.5977
-19.4067
-19.0837
-25.6175
-27.6024
-27.1672
-27.7161
-27.0972
-29.1853
-29.4284
-30.0111
-32.0847
-31.1101
-31.5494
-31.2681
-31.6557
-31.7664
-32.3081
-31.999
-31.5433
-31.6647
-2.04427
-2.55301
-1.83833
-2.5368
1.01052
0.318426
0.148322
-0.660232
-0.965441
2.76441
2.45239
2.58167
2.15481
2.24434
1.69559
-1.69865
-2.32367
-3.63993
-3.96911
-5.50077
-6.39497
-2.93371
-24.7462
-27.1919
-26.1104
-29.9353
-28.6089
-24.0313
-25.2179
-23.4033
-21.4395
-6.45733
-21.1824
-17.4005
-19.7703
-18.7328
-7.53535
-8.51233
-10.057
-10.5479
-12.1122
-12.5615
-14.3449
-15.3371
-17.0894
-30.0294
-30.9021
-29.8919
-32.8806
-32.5993
-34.1747
-32.3557
-32.2125
-31.4104
-31.947
-33.1797
-32.8744
-2.72607
-3.37019
-2.13817
-2.19576
-4.3279
-5.03613
-6.00534
-6.48524
-7.49593
-8.02894
-9.11426
-9.23231
-10.525
-11.3718
-10.2523
-12.0108
-12.6119
-13.5632
-14.0839
-14.8985
-13.5542
-14.0919
-15.585
-15.622
-15.6475
-16.4636
-16.3392
-16.4361
-16.421
-17.1676
-17.2775
-17.9822
-18.3463
-22.5789
-23.566
-24.6443
-24.0194
-22.2553
-21.5666
-19.3113
-19.6158
-21.397
-20.4226
-20.3349
-25.4596
-25.1064
-25.5152
-28.2914
-27.1484
-29.0048
-28.7797
-30.4686
-27.5643
-30.0291
-30.2965
-31.7364
-31.3495
-31.0019
-32.248
-30.3167
-31.4125
-0.44094
-0.246888
-0.650303
0.0311553
1.68603
0.928281
0.73737
0.293379
3.58189
3.34658
3.60341
3.2495
3.45465
2.96551
3.07698
2.41839
4.3071
4.16525
4.89115
4.91392
5.47878
5.33295
1.09197
-0.507613
-1.29104
-1.33159
-5.17747
-3.43552
-1.562
-0.784577
-28.6129
-28.1903
-26.5781
-22.4302
-25.6899
-24.227
-4.88914
-6.63608
-8.40914
-22.7225
-18.5754
-21.1505
-19.9291
-10.1594
-11.2179
-12.7327
-13.2362
-14.8557
-15.4051
-17.4063
-28.948
-32.6796
-33.3096
-32.1794
-31.2034
-34.2025
-35.2161
-34.3833
-35.1968
-33.0253
-33.0104
-33.5884
-34.3275
-33.9423
-1.31301
-1.82449
-4.31579
-4.37014
-3.12949
-3.72961
-5.68967
-6.24688
-8.04831
-8.09403
-9.19134
-9.66646
-11.2709
-11.2228
-12.1084
-12.6965
-13.6624
-13.9843
-14.9084
-14.7505
-15.5009
-16.1035
-17.0256
-16.6809
-17.3041
-16.9669
-17.68
-17.7156
-17.9428
-17.8735
-18.6605
-19.0004
-19.6481
-20.0242
-24.1697
-22.9137
-23.796
-23.2246
-22.2193
-20.6235
-21.6089
-21.0421
-21.4547
-26.3371
-24.9004
-27.4056
-25.8843
-27.8993
-28.1196
-27.4163
-31.031
-28.8652
-32.914
-31.034
5.53769
5.80781
0.941333
1.1466
2.44111
1.6915
1.82437
2.12978
2.42681
4.50788
4.21097
4.5154
4.12577
4.39835
3.88251
4.13004
3.45962
5.35284
5.21068
6.02117
6.03207
6.63104
6.44228
2.96726
2.54139
2.47362
0.691082
-3.08384
-1.51737
0.157807
1.40393
-24.7089
-26.7282
-27.9186
-3.16
-5.18857
-7.05326
-9.10155
-10.9638
-22.575
-24.4058
-18.8498
-21.6786
-12.9854
-14.1974
-16.3782
-16.7947
-19.0326
-28.7973
-31.0213
-30.5829
-33.724
-31.2361
-32.8265
-34.6297
-34.6356
-35.3564
-33.414
-34.46
-34.6985
-35.1054
-33.9273
-1.11864
-3.10738
-2.28292
-1.92889
-2.37089
-4.07323
-4.97218
-5.35386
-4.07576
-5.21428
-7.91432
-8.15667
-9.57349
-9.04753
-11.9361
-12.1808
-14.323
-13.2934
-13.2729
-14.0644
-14.2801
-15.304
-15.6128
-16.3188
-16.736
-17.7507
-18.3077
-18.2103
-17.9852
-18.5705
-18.6868
-18.2532
-19.5212
-19.4331
-19.4543
-19.9153
-21.3393
-24.7086
-24.2775
-23.2649
-22.078
-21.5032
-22.9178
-22.5905
-22.0541
-25.5426
-25.4143
-27.3685
-26.5038
-27.6509
-27.7721
-27.89
-27.588
5.54502
5.92614
6.58786
6.92909
3.6433
3.02112
3.33451
4.38452
4.28738
5.67129
5.39401
5.84862
5.26865
5.54062
4.88573
4.99385
6.48898
6.59585
7.33909
7.29464
8.01566
7.68571
6.15915
4.91999
4.24302
3.41984
4.66164
7.65699
-1.36528
0.293647
2.43264
4.10746
-1.20902
-28.5358
-26.3966
-2.9485
-5.23793
-7.41806
-9.74449
-12.8137
-14.9179
-14.4235
-21.3057
-25.9426
-23.5965
-17.7758
-18.349
-20.9544
-31.9583
-29.9295
-35.0135
-33.5532
-35.6171
-35.659
-36.1348
-35.261
-35.3758
-34.0506
-2.96245
-2.40541
-2.71752
-3.8029
-3.92622
-3.30244
-4.04292
-5.79591
-6.84204
-8.0276
-6.40421
-8.10626
-8.09435
-8.95451
-12.9775
-12.217
-13.7265
-13.8928
-16.7813
-15.0205
-14.8983
-14.1751
-16.1557
-17.6033
-17.1342
-18.3588
-18.5479
-18.3341
-19.1678
-18.3623
-19.5032
-20.0039
-20.0583
-18.8749
-20.6517
-20.0551
-20.5563
-21.7309
-22.7629
-25.7745
-25.0436
-21.8399
-21.9621
-22.87
-22.4188
-25.9994
-25.8168
-27.0565
-26.2321
-27.5531
-26.9763
-3.52525
-3.58868
5.336
5.84431
6.4782
6.94144
7.66245
8.21382
5.93789
5.79364
6.73789
7.81543
8.42562
7.1032
6.82564
7.31702
6.60179
6.98274
8.08789
8.08758
8.91574
8.82675
9.66881
9.11153
9.63962
7.68622
6.27453
6.64087
10.3803
9.56074
1.03325
2.96798
5.68587
7.29133
1.3615
-0.648984
-2.78205
-32.4001
-28.6717
-5.73968
-8.78015
-12.1332
-14.3889
-18.3182
-19.7527
-23.5047
-27.3039
-30.3525
-25.065
-37.5796
-35.0793
-38.4072
-38.6896
-39.1001
-37.9406
-38.988
-38.1466
-4.27674
-4.01057
-5.15766
-5.22621
-6.07627
-5.42235
-6.28763
-7.71774
-8.60522
-9.70958
-8.44372
-9.70329
-13.7139
-11.0138
-12.1953
-13.1307
-14.1189
-14.0937
-15.2813
-17.563
-16.0619
-17.4387
-15.9
-18.7132
-18.0498
-20.3129
-18.7523
-19.6399
-18.951
-19.1264
-19.014
-20.0072
-20.3989
-20.3518
-20.5184
-20.1601
-21.3225
-21.1516
-21.8519
-22.1412
-23.3869
-22.3082
-24.3979
-23.4797
-23.6359
-25.2131
-24.9462
-25.577
-25.0553
-3.97037
-4.14402
-4.9638
-4.97842
4.89012
5.4904
6.07357
6.64149
7.29459
7.96154
9.50708
8.80869
4.26574
4.88301
10.5939
10.2094
8.37222
8.90458
8.8974
8.56601
9.14973
10.081
9.89301
10.8796
10.6261
11.2716
10.4358
12.0975
12.5939
13.4448
12.5828
9.35836
10.3887
6.29392
4.29334
10.6734
9.10507
5.26729
2.74256
-1.21789
3.62736
-4.1377
-6.85391
-37.5274
-33.8216
-11.1547
-15.6531
-22.5008
-24.3491
-33.4975
-38.4283
-32.7575
-39.8835
-39.998
-41.5341
-40.9906
-42.2727
-40.9681
-5.83077
-6.27397
-6.94043
-7.10041
-8.14706
-7.57113
-9.01265
-9.86167
-10.874
-11.9163
-10.8859
-11.9215
-14.8395
-13.8819
-13.1853
-14.1666
-17.7692
-14.9702
-15.3125
-16.9457
-16.4443
-18.2062
-17.5132
-17.8092
-17.8352
-19.3116
-18.8093
-19.9207
-20.107
-19.7047
-19.7788
-19.4936
-19.4576
-20.4438
-20.613
-20.6807
-21.0174
-20.4464
-20.6885
-20.2855
-21.8186
-21.331
-23.6021
-22.4461
-24.7867
-23.531
-21.8661
-25.0681
-24.5674
-4.25719
-4.48823
-5.19106
-5.41285
-6.1806
-6.39089
5.38463
6.06897
6.62348
7.36254
10.8175
9.00959
9.97457
8.13237
3.53165
4.1268
4.52402
5.22282
2.71939
3.31003
1.85938
2.42942
12.5973
11.2472
10.8659
11.851
11.1165
11.9133
12.3863
12.061
13.2497
12.4715
12.7777
12.085
11.9001
14.0739
15.0243
15.2646
16.5467
15.9734
13.7486
13.0964
10.0532
8.13685
14.4295
13.102
8.93272
6.5434
-0.305566
-5.19637
6.48975
2.62384
-8.56705
-13.9729
-45.3214
-42.7387
-23.1669
-31.6507
-40.7517
-46.1505
-39.6817
-46.3231
-44.269
-46.366
-46.0283
-7.35154
-8.14399
-10.2967
-10.3697
-9.39632
-9.4075
-11.1462
-12.1638
-13.0788
-13.9288
-13.456
-14.1668
-16.0168
-15.0047
-14.7019
-15.2925
-18.026
-17.8716
-16.9298
-18.3735
-16.9273
-17.4179
-18.6644
-18.9682
-18.221
-19.4513
-19.4346
-20.6747
-20.2648
-20.2633
-20.1897
-20.1334
-20.758
-20.7206
-20.549
-20.7324
-20.6258
-20.4036
-21.19
-20.5761
-21.2684
-23.6348
-21.4564
-21.7799
-25.1554
-21.6887
-7.76112
-4.21451
-4.51038
-5.23249
-5.57759
-6.32745
-6.63705
-7.32817
-4.18896
-4.47604
-3.99129
-4.35346
-3.66307
-4.067
0.998546
1.49159
0.141742
0.563979
-0.694084
-0.320577
-1.4457
-1.16777
-3.25913
-3.70244
-2.72577
-3.19208
-2.12865
-1.92298
-2.60497
5.69113
6.54518
7.17695
8.1521
10.0898
11.0173
8.97655
3.6022
4.2956
4.67237
5.43289
2.59029
3.24892
1.52251
2.12701
10.8837
13.5837
14.9974
13.7219
14.2209
13.8404
15.3939
14.7646
15.8216
14.9596
13.1393
13.3416
11.8662
16.4356
16.8005
17.1467
18.4918
18.3632
20.0882
20.0898
17.7353
17.2866
14.4119
12.3521
18.9318
17.5983
12.6626
9.82021
-10.4946
-1.30385
-8.94292
8.40002
2.91841
-20.4249
-24.7394
-47.7605
-50.1515
-35.477
-65.8314
-55.7551
-54.1337
-46.7733
-8.80696
-9.57537
-11.7083
-11.8969
-12.002
-10.7205
-11.464
-13.5263
-13.9993
-15.106
-15.3914
-15.0096
-15.9807
-15.6791
-16.3761
-17.185
-16.2454
-19.4199
-18.8716
-17.7259
-18.0829
-18.8906
-18.5402
-19.5043
-19.4517
-20.3932
-20.402
-20.5687
-20.466
-20.9443
-20.9304
-20.8476
-21.1572
-20.8846
-20.9684
-20.9372
-20.6371
-21.0531
-20.6389
-20.4848
-24.7774
-20.7045
-9.10981
-7.58613
-8.39547
-5.12868
-5.53829
-6.25257
-6.64498
-7.31565
-4.90281
-5.30052
-4.61878
-5.06426
-4.20752
-4.68223
0.489438
1.005
-0.482403
-0.0625964
-1.43919
-1.06306
-2.2366
-2.01506
-3.6599
-4.17282
-3.00683
-2.7899
-3.55178
5.86806
6.89346
7.45145
8.72748
9.54479
3.47543
4.25443
4.51946
5.4237
2.19327
2.91326
0.87928
1.54796
8.93545
11.2155
9.7727
17.2364
16.9882
16.4396
18.2463
17.4555
18.0386
15.9696
14.3261
14.0937
12.2692
20.2391
18.9336
19.0956
21.9473
21.8806
23.9627
24.0665
22.1802
22.3314
19.1451
17.1164
24.1597
22.6566
17.4528
13.8749
-13.1382
-21.685
-2.22686
-12.0534
11.0918
3.37516
-28.8274
-30.5556
-40.304
-87.8675
-80.1548
-10.0525
-10.6919
-11.629
-12.7179
-13.4423
-13.2102
-13.2474
-12.6694
-16.0352
-16.6196
-17.2019
-17.2173
-16.4502
-17.7425
-17.0539
-17.8952
-18.2172
-18.5574
-18.2497
-18.0678
-19.746
-19.4147
-18.8835
-19.0874
-19.7517
-19.4565
-20.1532
-20.4306
-20.6381
-20.6596
-21.1651
-20.9996
-21.0335
-21.1532
-21.3869
-21.3458
-21.3936
-21.3205
-19.9984
-21.5801
-20.8181
-30.134
-9.04737
-9.89861
-7.73473
-8.62924
-5.97595
-6.44534
-7.29737
-5.77359
-6.28845
-5.31459
-5.8961
-4.68302
-5.26958
-0.257862
0.222559
-1.33397
-0.915064
-2.38986
-2.01933
-3.22031
-3.03728
-4.02608
-3.85301
-4.61281
5.76929
7.01021
7.63949
7.18759
3.00175
3.87623
4.0539
5.09657
1.49412
2.27751
0.00861325
0.793098
9.28461
7.83806
11.5987
10.0771
17.4562
17.4203
21.0628
20.3144
19.6511
18.725
21.3885
21.0684
12.4124
16.8136
15.2353
14.1271
23.373
23.2513
25.8058
25.5256
27.0521
27.9144
26.524
28.0087
24.0413
22.3436
28.7617
27.5361
23.6711
19.7555
21.5333
-18.7793
-28.5263
13.9886
-6.03682
-17.651
-32.2188
-28.1796
-13.8479
-10.2191
-11.0414
-11.735
-12.7222
-13.6015
-15.9016
-14.4745
-15.3586
-17.6908
-17.2424
-18.7452
-18.8113
-17.2591
-18.5739
-19.0897
-19.2034
-19.3582
-18.9386
-19.2454
-19.4977
-19.3932
-19.3507
-20.22
-20.0213
-19.7595
-19.8377
-20.1571
-21.0431
-20.5729
-20.7598
-21.0885
-21.1039
-21.2533
-21.2468
-21.0517
-21.1678
-21.8489
-21.148
-9.10096
-9.81996
-7.20068
-7.74237
-8.64112
-6.60077
-7.24061
-5.91619
-6.57401
-5.18362
-5.85607
-1.20478
-0.726502
-2.43455
-1.98777
-3.54419
-3.2408
-4.3709
-4.22933
-5.05847
7.10233
5.32584
6.20897
5.82482
2.31043
3.19547
4.16577
3.38038
0.711015
1.52739
-1.00032
-0.215628
9.06468
7.081
5.74327
11.3874
9.63669
17.9108
20.6843
19.5882
20.4538
24.9442
23.5883
24.7822
22.6667
22.9421
14.951
12.4472
17.6582
16.3054
19.2509
27.6076
27.1379
30.8548
33.3039
30.3955
31.1669
31.7707
32.4659
33.4392
28.7622
29.7272
29.8664
25.4847
27.0552
25.7209
21.2186
-21.4994
-39.5083
-36.0764
-15.8452
-10.2841
-14.3956
-14.8912
-11.3099
-11.598
-12.4493
-12.9868
-13.6786
-14.3194
-16.1862
-15.9633
-17.5493
-17.2567
-19.7559
-19.7997
-18.7278
-18.9668
-20.1951
-20.0094
-19.3673
-19.3428
-20.0059
-20.0897
-20.131
-20.6596
-20.5194
-20.3398
-20.5576
-20.9216
-20.7986
-21.0972
-21.0329
-20.9978
-20.9739
-21.017
-21.0555
-10.2852
-8.01146
-8.60404
-9.36516
-9.66926
-7.30896
-8.02773
-6.50909
-7.21335
-5.65186