/*--------------------------------*- C++ -*----------------------------------*\
  =========                 |
  \\      /  F ield         | OpenFOAM: The Open Source CFD Toolbox
   \\    /   O peration     | Website:  https://openfoam.org
    \\  /    A nd           | Version:  8
     \\/     M anipulation  |
\*---------------------------------------------------------------------------*/
FoamFile
{
    version     2.0;
    format      ascii;
    class       volScalarField;
    location    "10000";
    object      epsilon;
}
// * * * * * * * * * * * * * * * * * * * * * * * * * * * * * * * * * * * * * //

dimensions      [0 2 -3 0 0 0 0];

internalField   nonuniform List<scalar> 
4109
(
0.117505
0.131183
0.12081
0.129881
0.135523
0.131486
0.13676
0.120696
0.145275
0.145103
0.14318
0.147277
0.120098
0.134656
0.139654
0.150936
0.151598
0.149996
0.152001
0.141144
0.121866
0.130646
0.13148
0.158825
0.160152
0.16533
0.119999
0.133818
0.11858
0.16047
0.149186
0.143184
0.132437
0.13128
0.137933
0.163078
0.164098
0.176548
0.137246
0.119695
0.134471
0.137069
0.122389
0.166565
0.154523
0.552521
0.25001
0.148859
0.143826
0.132372
0.138991
0.170778
0.178449
0.192218
0.150429
0.13767
0.117473
0.135025
0.139348
0.147628
0.143938
0.676845
0.177315
0.163066
0.157185
0.212699
0.553014
0.151025
0.143476
0.143701
0.207829
0.184805
0.236317
0.22742
0.224585
0.155908
0.155576
0.14386
0.134908
0.144252
0.140646
0.143545
0.149307
0.15211
0.182896
0.248551
0.590439
0.800344
0.810641
0.188968
0.184678
0.169517
0.163121
0.157878
0.193881
0.422511
0.151296
0.143933
0.237085
0.220717
0.209838
0.242332
0.248356
0.245916
0.251896
0.165709
0.161304
0.155489
0.141094
0.15449
0.208239
0.147194
0.151785
0.154731
0.161319
0.818592
0.303684
0.400236
0.567059
0.895679
0.846845
0.25209
0.206331
0.194385
0.178849
0.172037
0.165669
0.157406
0.429746
0.162586
0.154745
0.241512
0.227104
0.260361
0.251883
0.27434
0.256568
0.1721
0.169816
0.169517
0.155147
0.161004
0.211027
0.15219
0.15755
0.162786
0.166814
0.798257
0.47461
0.916043
0.599386
0.925898
0.28515
0.214462
0.20367
0.186773
0.179151
0.17249
0.166066
0.159857
0.415409
0.154469
0.235695
0.221824
0.269644
0.248224
0.279166
0.283649
0.300085
0.182715
0.178211
0.176993
0.163906
0.169623
0.226712
0.159219
0.165602
0.168919
0.176766
0.556281
0.972615
0.580165
1.00947
0.984421
0.313865
0.197387
0.207055
0.188714
0.172229
0.180802
0.170738
0.473946
0.163198
0.219138
0.230588
0.263616
0.24429
0.278158
0.297222
0.296313
0.338056
0.190363
0.188165
0.189465
0.177772
0.171347
0.228538
0.165791
0.171663
0.177975
0.183811
0.602812
1.05466
1.07882
0.666626
1.09688
0.310134
0.198463
0.210152
0.184839
0.178471
0.496482
0.169886
0.221467
0.234392
0.257909
0.24768
0.273648
0.29623
0.311801
0.335234
0.375038
0.202441
0.196975
0.196616
0.189095
0.17895
0.241299
0.179824
0.172462
0.211962
0.185977
0.194915
0.590943
1.15071
0.698028
1.19338
1.19334
0.329662
0.200876
0.208848
0.190314
0.547528
0.171656
0.224067
0.234165
0.26209
0.250337
0.277485
0.289834
0.315064
0.338442
0.362229
0.422392
0.213115
0.205306
0.202639
0.222023
0.181142
0.24538
0.184168
0.225183
0.203814
0.196864
1.24219
0.615361
1.29081
0.766551
1.3289
0.338327
3.64985
0.202997
0.215219
0.577137
0.179054
0.223643
0.237527
0.26306
0.249462
0.279754
0.293522
0.308307
0.33749
0.364643
0.402126
0.412958
0.47906
0.210092
0.219833
0.203516
0.234342
0.236737
0.186844
0.255218
0.199698
0.216297
0.207085
0.639395
1.36606
1.41544
0.770336
1.44505
0.353897
4.40738
3.87582
4.60697
3.18424
3.9592
2.78974
0.751983
0.187953
0.232169
0.238453
0.254129
0.252443
0.267529
0.280579
0.29401
0.311392
0.42399
0.327688
0.361238
0.397176
0.478459
0.541667
0.510046
0.617859
0.231726
0.225023
0.247543
0.251647
0.227121
0.199409
0.271796
0.207346
0.219421
0.698909
1.52087
1.50333
0.357022
9.80429
7.17486
4.72242
3.39321
4.36372
5.47821
0.724371
0.718617
0.810411
3.02079
2.61985
2.79068
2.54537
2.91514
1.38695
0.218514
0.306338
0.287399
0.273887
0.464694
0.284918
0.29562
0.311873
0.330418
0.42252
0.349641
0.387942
0.533201
0.479672
0.589861
0.576224
0.721148
0.806613
0.248664
0.251309
0.265024
0.26486
0.241316
0.231316
0.209935
0.269358
0.223009
0.789829
1.81176
10.1273
7.33936
3.60962
4.35717
5.52844
0.787731
0.840137
0.920336
0.843768
0.898342
2.13266
2.32175
2.24651
2.52334
2.99091
2.06863
1.18158
0.318382
0.328622
0.29229
0.454859
0.47188
0.310683
0.308336
0.329142
0.351503
0.414618
0.373177
0.542322
0.509188
0.595643
0.647278
0.729696
0.766512
0.276542
0.265319
0.232793
0.293499
0.281781
0.254491
0.245423
0.319437
0.236783
0.224543
0.330614
0.867868
9.84249
11.2001
7.49129
3.58597
4.45296
5.70717
0.830641
1.00247
1.18956
0.939052
1.02763
1.82949
1.47208
0.933202
1.00112
1.9927
2.18588
2.5446
2.95255
2.48324
2.13098
0.605489
0.345347
0.325213
0.44396
0.473825
0.325193
0.328341
0.349737
0.374207
0.400022
0.553597
0.513289
0.605108
0.660802
0.698565
0.758244
0.302253
0.319378
0.295074
0.248684
0.249057
0.27097
0.286961
0.259836
0.334763
0.307203
1.72616
2.49498
0.241293
0.235147
10.2517
7.29755
7.04484
11.4057
7.76151
3.63366
4.54875
5.91913
0.912761
0.805851
1.07055
1.20277
1.13502
1.4044
1.66362
1.0369
1.12286
1.90799
2.14635
2.52699
3.06518
3.2711
3.08738
3.87768
0.641776
0.409768
0.348312
0.429296
0.462463
0.350669
0.346671
0.370389
0.400717
0.498965
0.540404
0.586575
0.639251
0.693383
0.739234
0.773233
0.337381
0.335561
0.26245
0.261986
0.276741
0.293221
0.312759
0.358075
0.32708
0.264371
0.361037
0.458505
10.664
7.53974
6.47381
4.31498
4.3917
11.5843
7.60072
3.71551
4.14697
4.95762
1.00671
0.876719
0.838714
1.61549
1.25986
1.35025
1.15896
1.24828
1.86929
2.11717
2.63669
3.13222
0.944946
3.87784
3.92184
4.47788
0.854847
0.455416
0.38679
0.429776
0.462374
0.371141
0.373309
0.398423
0.498412
0.539005
0.584337
0.635693
0.680297
0.713927
0.770654
0.78289
0.376176
0.37787
0.283054
0.282784
0.298944
0.315768
0.331774
0.385257
0.349436
0.332951
0.283581
0.302676
10.4477
3.29171
6.16611
5.39711
4.35535
11.7404
7.70914
3.51002
4.33029
5.22201
6.51452
1.11569
0.862338
0.976293
0.867314
1.29764
1.56127
1.41971
1.87386
2.27455
2.71537
2.99761
0.994515
4.63682
4.81243
5.5905
0.965402
0.532893
0.421967
0.46009
0.426059
0.396673
0.401669
0.494671
0.535264
0.627015
0.578133
0.66774
0.709718
0.711793
0.759967
0.823953
0.421508
0.407905
0.417834
0.304295
0.303464
0.330321
0.349413
0.372167
0.364646
0.306067
0.349329
10.9353
7.30173
2.47821
2.7169
4.9653
4.35675
3.59392
8.10778
11.6782
3.65402
4.28726
5.04612
6.20935
1.23862
0.892839
1.06792
0.919244
0.979825
1.46353
1.57339
1.37164
1.94505
2.32959
2.63831
3.13335
1.47416
5.55497
5.89799
6.51541
1.2099
0.611272
0.444858
0.463035
0.428991
0.429548
0.502869
0.534686
0.617387
0.580809
0.68116
0.711791
0.749129
0.798987
0.857106
0.474619
0.456775
0.45167
0.400129
0.330298
0.332456
0.351184
0.365318
0.38138
0.330771
0.412181
11.7556
8.623
6.4432
5.50839
1.92308
2.16862
2.59469
4.1624
3.56008
3.08902
1.56117
8.09184
11.4655
11.6747
3.6375
4.28798
5.73851
5.04662
1.19567
0.94388
1.04419
0.973717
1.51542
1.70893
1.33248
3.13816
2.00076
2.24162
2.7031
1.59797
6.75863
7.27247
8.1345
0.473553
1.45145
0.632397
0.4666
0.466554
0.554019
0.531743
0.636343
0.643754
0.598497
0.691277
0.752922
0.811264
0.537123
0.500036
0.485586
0.428655
0.414895
0.351332
0.347283
0.371955
0.394284
0.355369
0.440449
0.617021
0.702066
8.36457
6.67936
5.12869
4.42389
1.77569
2.19127
2.62916
3.42764
2.94203
1.4646
1.24731
1.07337
0.860721
0.799973
10.8309
7.80641
10.8555
8.13343
3.16462
3.67723
4.21667
5.60405
1.17294
0.996242
1.0563
1.72703
1.52246
1.33607
1.26962
2.69359
2.68788
1.97713
2.33248
1.95479
9.22392
8.37735
9.37306
0.666744
1.56173
0.501303
0.557473
0.639103
0.583286
0.686661
0.732792
0.786204
0.541475
0.520549
0.462879
0.440202
0.418149
0.380345
0.375293
0.39912
0.513313
0.384172
0.741298
0.619381
0.680215
6.409
5.41963
4.19619
3.58392
1.79217
2.24733
2.47653
2.82513
1.57428
1.23732
1.30377
0.760503
1.04561
0.825783
0.900504
8.01285
6.67113
6.2525
5.15083
3.0025
3.52707
4.60312
2.63039
1.13366
1.0573
1.6454
1.40684
1.532
1.36024
1.22197
2.36244
2.40651
2.00183
1.80437
11.3035
10.5295
11.366
1.07328
1.75268
0.552547
0.322356
0.635519
0.700527
0.759611
0.561334
0.49899
0.479269
0.452833
0.426529
0.403015
0.39636
0.462828
0.401894
0.691125
0.616146
5.04642
5.20355
4.42532
3.43665
2.91191
1.92208
2.12035
2.36741
1.64355
1.45871
1.28052
0.768993
0.819099
1.128
0.891278
0.984568
5.79421
5.17641
5.13595
4.29851
2.32756
3.11933
3.40962
2.69069
4.32648
1.1215
1.72947
1.56773
1.47289
1.30098
1.19121
1.80687
1.99252
2.03127
1.85011
15.1827
13.6403
15.6498
3.07103
0.617988
0.902131
0.681363
0.743255
0.54147
0.513411
0.483969
0.459919
0.433654
0.429523
0.471798
0.437805
0.67673
0.587682
4.25038
4.32604
3.54113
2.79965
2.41798
1.82953
2.01411
1.58802
1.39072
1.23524
0.73914
0.801274
1.10345
0.887542
0.980629
4.27265
4.13339
3.34532
1.89332
2.0972
2.38375
2.6044
3.55148
1.50034
1.37258
1.25155
1.64509
1.58003
1.79791
2.64514
20.8802
27.397
9.45464
0.677835
1.11633
0.739186
0.560257
0.525762
0.4952
0.462848
0.458289
0.50639
0.641492
0.605448
3.51507
3.45936
2.81686
2.32353
2.0518
1.73467
1.51063
1.32712
1.17599
0.701314
0.770843
1.04884
0.849662
0.94195
3.40615
3.40176
2.78919
1.95536
2.1278
2.30828
1.81823
2.82759
1.41158
1.30882
1.5097
1.54038
1.67697
4.70959
46.1655
45.4969
21.3364
0.754611
2.34203
0.566036
0.536535
0.494041
0.502083
0.618657
0.66322
0.617523
2.83005
2.81309
2.33797
1.98757
1.76637
1.53934
1.35298
1.20186
0.722681
0.795328
1.07356
0.873576
0.967578
2.78428
2.77102
2.32925
1.85494
1.98324
1.68678
2.347
1.35724
1.43021
1.45601
1.52722
1314.36
10.0968
77.9433
81.0392
51.3476
1482.22
0.57955
0.541244
0.556468
0.553664
0.849099
0.669739
0.63024
2.30199
2.32658
1.99986
1.72339
1.50583
1.33252
1.18733
0.734069
0.800822
1.07025
0.880699
0.966507
2.21336
2.23581
1.98269
1.68309
1.53066
1.95586
2.00959
1105.25
1207.46
23.4063
139.918
140.006
1582.05
1368.86
1951.65
0.594757
0.541555
0.613936
0.610645
1.41926
0.685711
0.625129
2.01128
2.00478
1.7267
1.50891
1.33495
1.1959
0.749651
0.819722
1.08029
0.982876
0.896165
1.97308
1.75619
1.5274
1.74006
1.81119
1.77997
764.69
975.824
1147.83
53.4551
1532.99
1304.3
1833.47
1961.89
0.621454
0.617008
0.683094
3.05647
0.699389
0.634823
1.67086
1.68281
1.48697
1.32162
1.19071
0.750479
0.832169
1.08565
0.991898
0.909469
1.76057
1.57274
1.623
1.65276
1.63803
1.61587
713.307
611.643
896.774
1138.6
1896.91
1679.08
1524.28
1292.52
1911.21
1981.18
0.660359
0.681175
0.756296
0.681863
0.700276
0.74003
1.54804
1.37307
1.2523
1.13419
0.810668
0.822033
1.06372
0.964322
0.918441
1.57055
1.5248
1.52905
1.50798
1.48162
557.664
507.441
863.99
1195.08
2190.81
1964.01
1473.46
1725.33
1572.53
1349.27
2039.14
2022.69
0.695949
0.723799
0.739428
0.761957
0.822647
1.45043
1.33285
1.23495
1.13747
0.853107
0.878206
1.06159
0.9905
0.932854
1.42033
1.38875
1.34338
2452.47
445.169
440.973
884.169
1369.63
2212.81
2136.61
1260.08
1495.99
1817.21
1713.65
1527.99
2269.16
2098.73
0.726057
0.752575
0.7877
0.820128
1.3213
1.27176
1.20442
1.1331
0.865943
0.909201
1.06607
1.00829
0.953791
2902.65
2422.64
366.232
407.047
990.196
1881.7
2277.29
2424.08
1155.67
1260.36
1550
1968.72
2040.45
2051.4
2678.38
2237.05
3213.08
3027.8
2397.86
313.914
408.411
1333.74
4454.31
2421.84
2927.78
988.963
1163.23
1290.34
1654.61
2223.95
2895.78
4637.92
3463.54
2480.31
3244.2
3589.28
3080.91
2414
292.313
487.488
3078.96
2704.66
3774.85
876.822
999.815
1193.11
1365.69
1844.8
2687.27
6776.04
5315.45
3167.56
3689.66
3997.3
3097.71
2525.74
321.791
958.518
3286.71
5363.01
596.725
869.483
1048.54
1261.83
1514.86
2207.99
3718.86
12568.5
2698.19
3451.14
4263.76
4410.92
3167.34
2828.46
573.533
4696.88
129.267
536.966
868.41
1148.94
1397.38
1808.05
3042.35
7544.41
2973.96
3096.9
3751.32
5007.45
4811.56
3402.99
3637.23
10117.5
83.7189
121.429
493.348
873.542
1332.64
1665.9
2487.19
6174.22
2505.77
3424.68
3574.2
4141.25
6028.82
5286.1
4125.9
6826.16
91.1767
88.1435
117.563
463.036
887.811
1679.58
2289.41
4978.15
1309.56
3035.04
4004.6
4165.92
4653.19
7393.71
6188.25
7092.94
97.2218
99.1886
95.763
118.765
447.14
922.795
2460.21
4556.28
1076.4
1491.83
3854.22
4793.35
4948.14
5462.19
9132.91
9414.44
97.6956
105.687
110.739
107.944
128.771
449.933
1032.39
5230.73
930.286
1174.08
1637.75
5310.48
5935.34
6118.5
7322.25
11237.3
92.3577
106.142
117.891
127.696
127.767
160.265
520.634
1298.75
946.574
1045.06
1286.81
1763.06
8148.32
7698.25
8262.31
9319.21
85.3098
100.282
118.329
135.871
154.152
163.429
249.507
1060.49
1075.01
1057.71
1171.99
1442.06
1879.93
14016.3
10458.9
14414.2
128.45
89.7417
111.809
136.294
164.031
200.792
246.38
662.617
1335.52
1176.2
1182.5
1334.58
1686.45
2091.29
27314.2
13187.5
577.388
121.149
97.421
128.802
164.448
213.973
307.768
600.126
2463.16
1550.95
1292.28
1344.39
1575.14
2120.04
3109.1
66794.1
901.625
523.251
117.721
109.703
155.407
214.401
328.796
763.842
2878.1
2845.15
1774.1
1450.33
1585.57
1988.06
3054.48
8275.86
1000.81
888.346
481.746
119.351
129.693
202.408
329.337
817.142
2613.5
3270.88
3267.74
2057.19
1696.95
2001.4
2868.19
6049.8
1174.35
1015.66
885.551
451.927
129.98
165.652
310.249
817.215
3252.14
3012.44
3738.32
3767.94
2482.63
2135.09
2890.43
5718.65
1268.89
1185.57
1069.47
890.711
436.057
162.057
249.013
767.077
3350.46
3576.65
3499.24
4304.4
4383.27
3215.96
3090.03
5794.39
1486.16
1271.53
1220.47
1176
905.936
438.777
251.672
601.849
3292.93
3821.17
3885.93
4083.29
5107.31
5177.58
4695.99
6239.92
1705.82
1513.68
1305.32
1295.63
1367.73
944.006
509.382
662.149
2894.56
3690.8
4438.76
4223.38
4846.01
6498.53
6508.65
9144.74
2081.51
1891.12
1763.56
1573.72
1385.71
1439.93
1727.39
1057.77
1047.99
2435.24
3005.16
4099.7
5264.76
4648.7
5859.89
9328.58
12223.6
1696.78
2082.92
1987.3
1868.41
1684.68
1541.8
1722.51
2538.57
1340.87
2175.81
2404.86
3048.88
4477.37
6379.92
5552.78
7992.22
15292.2
1849.61
1532.47
1655.48
2103.73
2130.34
2032.91
1882.55
1847.48
2376.75
5421.39
2185.38
2378.34
3073.42
4817.69
7787
7740.2
18039.3
1913.87
767.554
1437.74
1435.31
1655.99
2149.74
2379.92
2302.87
2257.95
2552.92
4759.83
851.74
1214.37
2240.56
2391.84
3148.25
5224.53
9545.35
10966.6
2072.83
601.032
1323.44
1380.92
1716.66
2234.08
2818.11
2786.83
3117.45
5150.47
678.526
1084.55
2377.33
2499.58
3381.89
6144.71
11968
2347.05
480.677
1261.06
1379.2
1878.54
2385.3
3654.1
3856.49
6353.86
563.615
1004.24
2650.62
2796.23
4103.43
9653.64
2831.11
396.12
1254.59
1449.63
2243.19
2651.41
5631.84
7835.32
489.635
972.74
3214.97
3592.77
7037.82
3662.78
339.607
1321.44
1653.69
3195.14
13420.8
450.54
999.636
4584.51
6728.07
5230.07
315.262
1521.44
2238.35
7538.37
448.502
1121.98
9844.85
343.18
2101.56
5136.73
527.17
1509.44
610.169
5000.11
1009.2
3464.7
0.906033
0.866226
0.890961
0.890875
0.920142
0.91636
0.929825
0.92922
0.947144
0.833829
0.854734
0.86294
0.886653
0.893368
0.916532
0.926063
1.00138
1.02549
1.04916
1.08567
1.11299
0.946255
0.958978
0.945285
0.946324
0.954567
0.949093
0.973687
0.965989
0.992033
1.15613
1.17649
0.806155
0.828107
0.839624
0.861547
0.873061
0.892919
0.909474
0.929309
0.945695
0.964034
0.983389
1.00297
1.03245
1.05952
1.10882
1.13625
1.22584
1.24069
0.976859
0.991811
1.0114
1.0275
1.05185
1.07375
1.11433
0.972263
0.976751
0.97463
0.973643
0.992975
0.981231
1.02188
1.00873
1.04181
1.11412
1.14403
1.31076
1.33669
1.22356
1.21771
1.2996
0.786534
0.805914
0.822437
0.841348
0.858983
0.8776
0.897738
0.915285
0.943109
0.963725
0.989109
1.00872
1.07332
1.10052
1.1489
1.17072
1.24337
1.26766
1.34949
1.38596
1.48058
1.49367
1.62828
0.999363
1.00867
1.02782
1.04397
1.06909
0.997958
0.999806
1.00858
1.00126
1.03386
1.01938
1.09376
1.06965
1.05299
1.07847
1.13812
1.14206
1.22527
1.25109
1.57241
1.36613
1.48785
1.31694
1.36271
0.775557
0.793397
0.813487
0.832505
0.853488
0.871487
0.894085
0.914394
0.935744
0.960881
0.991005
1.03221
1.1704
1.1036
1.21787
1.27275
1.34311
1.36511
1.45057
1.6751
1.72209
1.74159
2.01098
2.04331
1.94677
2.09023
2.09327
2.81846
1.02165
1.03131
1.04777
1.06376
1.14623
1.118
1.02626
1.02336
1.04387
1.03341
1.09658
1.07438
1.05995
1.19813
1.16828
1.08897
1.12845
1.15944
3.65135
3.08134
5.68606
1.23209
1.23545
1.32394
1.35553
1.61051
1.64194
2.30454
1.93543
1.55218
1.61907
0.781331
0.795399
0.820571
0.836568
0.863022
0.879682
0.908924
0.928752
0.991692
0.968322
1.0476
1.07488
1.17142
1.18886
1.36906
1.36389
1.54664
1.55987
1.73299
1.76447
1.94812
22.627
21.1836
12.5069
2.01002
2.2335
2.40835
2.6767
2.95059
3.0997
3.09215
11.6224
4.93314
1049.76
1328.28
1243.73
1827.82
1541.17
1655.99
1768.17
1837.13
1.04703
1.04917
1.07231
1.0864
1.14232
1.11815
1.05712
1.05061
1.10025
1.08146
1.07018
1.252
1.21984
1.18996
1.16376
1.10704
1.15405
1.25079
1.18735
1.24189
895.042
629.108
109.773
57.5041
25.058
2.45923
4.09494
5.3825
14.9352
1.36606
1.37298
1.38267
1.37284
1.59767
1.62792
1.77883
1.7033
2.28851
961.223
1258.3
1472.73
1399.33
1619.77
1764.7
1798.32
1857.78
1809.5
1760.69
0.872318
0.838452
0.903336
0.891551
0.949637
0.942011
1.00012
0.996091
1.05266
1.05079
1.12025
1.11912
1.23825
1.26938
1.31932
1.33607
1.18151
1.45615
1.26781
1.32027
2.81135
2.80664
3.38536
3.8097
3.72405
58.3265
94.0614
300.501
182.529
56.4306
39.2178
6.33689
8.38384
12.1643
11.4234
36.1505
16.8045
14.8494
390.187
930.609
614.55
675.502
956.062
1183.42
1309.92
1303.29
1608.34
1596.75
1606.11
1519.25
1823.43
1883.25
1918.11
1741.71
1891.03
1811.82
1.07565
1.07597
1.09701
1.11294
1.14477
1.12134
1.10973
1.09198
1.08169
1.30377
1.26924
1.23593
1.20897
1.18381
1.1606
1.12812
1.17379
1.18061
1.24284
1.24857
1.30983
1.23989
185.31
492.111
331.496
848.239
525.189
92.2115
198.293
70.5485
23.7529
1.37203
17.4264
3.06148
6.26802
4.30815
1.55275
1.48356
1.66967
1.56462
1.70501
1.69588
1.93206
1.8104
3.07407
949.736
1332.35
846.911
1459.93
1649.85
1260.26
1490.22
1772.35
1777.61
1795.23
1615.39
1797.64
5.16722
1.15573
103.684
29.152
2.41755
1.18261
1.78495
1.13438
1.48353
1.09072
1.3286
1.29282
1.24728
1.4048
1.37326
1.59959
2.28208
1.47834
2.75462
4.13834
4.22438
7.72415
22.2865
8.6426
9.29395
39.28
42.6619
14.8748
13.597
19.068
19.9656
26.6765
28.3061
122.091
185.459
344.779
238.085
132.75
83.7383
49.3209
54.2157
99.109
66.7252
73.0114
608.529
480.512
648.933
963.353
854.326
1267.45
1172.36
1578.74
1415.71
1475.72
1678.45
1847.02
1774
1672.83
1856.47
1937.89
1945.47
1.1336
1.10419
1.10203
1.12192
1.14424
1.1257
1.11748
1.14614
1.3585
1.32212
1.28275
1.25211
1.22405
1.19715
1.1811
1.1587
1.40807
1.35052
1.40941
1.46357
1.42428
1.45733
1.1987
1.19438
1.2002
1.22559
1.38752
1.29687
1.33454
1.25633
505.836
397.279
234.324
35.6379
172.615
95.9907
1.46805
1.75637
1.68343
44.9737
4.37264
12.4983
7.73631
1.98167
1.90284
2.08363
2.01052
2.40842
2.09169
5.13614
465.938
1040.95
1313.73
901.555
645.971
1473.37
1207.05
1517.19
991.497
1797.25
1841.4
1923.71
1805.4
1664.93
222.29
246.254
58.9983
11.5497
252.71
218.87
30.4811
11.1153
21.3281
6.3921
13.4836
4.2355
9.3525
2.36374
4.43228
10.1258
30.3339
18.4081
37.2882
20.0393
26.5415
65.0615
101.774
111.555
56.9163
53.9394
120.638
137.442
62.5559
70.1324
95.1509
96.2248
126.465
103.596
402.475
215.694
290.872
268.986
210.878
189.659
238.935
141.088
220.59
715.475
527.275
1197.8
937.142
1045.71
1487.79
1333.66
1675.55
1590.69
1779.59
1720.72
1.43958
1.40581
1.13101
1.14764
1.15067
1.1351
1.13309
1.15817
1.17546
1.32592
1.28102
1.2634
1.22853
1.21538
1.1898
1.18093
1.1628
1.3706
1.33305
1.3531
1.37932
1.33165
1.36311
1.19463
1.20196
1.2155
1.26299
1.52007
1.37693
1.40757
1.31082
91.7263
191.461
291.536
1.63511
1.93478
1.91704
2.30882
2.32223
23.7195
102.285
7.08888
21.6165
2.57284
2.33385
3.96403
2.99983
8.2042
314.431
604.578
518.138
1137.89
1172.11
1387.32
1803.12
1940.54
1029.52
1657.31
2063.79
2001.24
2022.32
1875.11
223.106
198.739
102.355
249.121
231.554
290.71
234.677
151.64
319.669
395.976
225.174
107.49
175.438
66.7607
124.79
50.7571
66.1036
89.0527
64.3377
143.561
110.045
103.063
103.664
113.171
219.917
241.694
259.823
295.862
188.739
181.466
321.6
339.339
206.51
226.592
290.383
283.39
325.096
552.365
456.735
517.304
358.675
458.237
467.905
415.268
503.787
1028.94
827.402
1386.31
1239.63
1594.75
1516.12
1676.71
1611.4
1.48239
1.42109
1.37562
1.34151
1.16717
1.16244
1.16394
1.17339
1.19278
1.29984
1.27312
1.24798
1.22828
1.20859
1.19441
1.18642
1.2969
1.31641
1.27663
1.30357
1.27943
1.30285
1.20894
1.20849
1.23757
1.33233
1.25206
1.21332
1.68015
1.52395
1.54349
1.41803
1.8156
234.399
140.691
2.21075
2.2069
2.57725
2.49906
3.53563
4.04746
2.5098
26.6643
127.287
31.9625
9.8854
6.24611
28.5316
587.994
389.342
1299.01
1036.73
1762.29
1889.37
2168.33
2181.17
2255.88
2141.85
6.55471
33.2056
256.849
280.871
64.467
236.929
310.729
252.147
417.656
447.117
256.887
338.185
455.189
436.255
454.398
299.527
376.817
278.178
242.559
228.071
388.354
291.008
400.994
332.496
340.44
455.463
503.151
503.168
531.52
448.68
427.712
379.665
594.362
611.937
472.943
491.753
631.935
628.652
821.01
927.458
805.261
768.239
834.103
745.634
807.046
1283.34
1180.88
1453.37
1385.08
1492.74
1430.58
0.890116
1.61843
1.49827
1.4598
1.41379
1.35988
1.32535
1.29072
1.18194
1.18244
1.18261
1.18473
1.21471
1.26211
1.24562
1.22513
1.21244
1.1996
1.23192
1.25322
1.23239
1.25517
1.24465
1.26405
1.21284
1.27059
1.28533
1.43172
1.25545
1.28162
1.92414
1.60209
1.68204
1.44913
2.26389
2.70417
2.83318
461.91
188.019
2.91629
2.4659
8.87759
4.68296
41.591
34.9141
23.631
142.683
231.751
81.1144
1261.17
781.309
1932.04
1711.82
2234.56
2286.66
2499.95
2454.08
3.30375
20.3709
254.26
394.879
41.0592
148.948
413.958
329.855
325.7
438.776
344.94
274.498
602.008
411.69
540.988
576.297
579.23
583.888
581.528
505.479
496.691
622.388
596.2
604.506
625.719
752.495
708.9
724.503
731.235
747.701
717.584
856.387
645.345
696.681
875.828
836.881
790.21
804.202
931.35
930.881
1010.46
1012.34
1199.13
1053.74
1070.34
1307.01
1251.36
1303.48
1258.5
0.78156
0.836608
0.892801
1.51476
1.46198
1.44294
1.40826
1.39154
1.35813
1.31211
1.25437
1.28782
1.38025
1.40435
1.19867
1.1866
1.17922
1.18028
1.21528
1.1953
1.19122
1.20151
1.21511
1.20603
1.22689
1.22245
1.23847
1.22621
1.26175
1.31268
1.40574
1.45584
1.34255
1.83742
2.31414
1.59788
1.91002
2.57554
3.71488
2.82949
3.94295
7.57162
1.93744
913.603
535.042
38.1361
14.8132
152.573
87.7025
402.11
712.231
301.384
1810.81
1576.82
2277.18
2394.07
2706.47
2717.56
2.42073
12.8064
215.286
451.592
24.6283
97.9013
464.622
483.318
258.627
289.768
473.272
335.31
544.26
478.403
267.308
344.055
668.435
503.125
566.55
538.41
624.406
679.399
678.026
631.819
661.326
719.864
704.621
707.879
857.03
807.023
771.087
755.738
704.795
847.181
869.54
953.206
892.911
901.869
974.594
988.372
956.806
969.444
999.557
1016.47
1188.96
1142.01
1053.65
1180.32
1155.55
0.769998
0.791042
0.822607
0.890087
0.933347
1.44784
1.36857
1.35775
1.33361
1.33292
1.23058
1.27681
1.25672
1.3049
1.33148
1.31988
1.30181
1.32665
1.28939
1.28725
1.24438
1.2459
1.23097
1.19017
1.18803
1.18898
1.19275
1.22314
1.18834
1.19731
1.20446
1.21104
1.20837
1.22415
1.22851
1.2611
1.35472
1.29586
1.431
1.57953
1.53248
1.68572
2.19875
2.73786
1.90689
2.29978
3.27677
5.01254
15.2301
10.9019
9.41957
21.6201
76.2026
66.3994
1702.16
1158.85
336.131
313.134
800.46
1244.7
767.699
2235.93
2431.34
2772.89
2943.76
1.95409
7.67609
164.004
428.397
14.3046
57.576
439.837
556.649
313.468
255.459
544.097
424.442
359.268
293.956
242.548
246.846
564.106
543.05
306.529
428.58
351.348
433.533
542.383
627.271
607.732
596.796
558.861
567.554
511.556
708.478
705.16
591.537
515.911
543.266
530.353
719.317
766.909
974.429
1007.57
1004.37
985.636
990.883
1011.49
1029.59
987.069
994.224
1.31864
0.778943
0.786105
0.806131
0.833493
0.867926
0.933419
0.978159
0.801606
0.799768
0.834761
0.826206
0.874208
0.85791
1.20022
1.21132
1.15692
1.16987
1.10959
1.12645
1.05899
1.08127
0.918393
0.896859
0.964385
0.938613
1.01128
1.03398
0.984121
1.29945
1.28969
1.27295
1.28008
1.24858
1.23758
1.26401
1.25785
1.25578
1.24176
1.26506
1.21756
1.22071
1.17621
1.18212
1.22964
1.19308
1.20979
1.19147
1.20774
1.21014
1.20642
1.21315
1.21316
1.22396
1.23405
1.23272
1.23215
1.22916
1.32607
1.25573
1.48521
1.37578
1.57261
1.83074
1.72825
2.04266
2.70179
3.87043
2.41624
3.06746
4.50455
13.5976
163.007
101.103
194.168
42.8454
177.343
459.201
571.016
2268.33
1832.25
1136.7
1839.57
1212.06
2813.48
2895.88
1.54053
4.9086
413.396
102.346
196.364
8.68627
34.833
563.435
596.206
367.379
280.734
588.944
457.157
638.754
238.561
235.137
227.402
422.479
366.645
215.419
255.263
283.484
236.708
375.728
438.203
399.177
355.204
375.458
329.601
388.101
315.683
400.746
254.023
337.239
237.57
321.367
552.365
990.561
950.067
683.038
938.683
895.082
1.23624
0.974194
1.01841
0.812881
0.821327
0.846421
0.879173
0.917625
0.830942
0.833034
0.857683
0.856408
0.891392
0.884799
1.13584
1.1485
1.0966
1.11239
1.05475
1.07228
1.01249
1.03277
0.931255
0.918498
0.970586
0.993169
0.954526
1.24802
1.23878
1.22896
1.24432
1.23655
1.20137
1.20682
1.19661
1.21977
1.16453
1.17085
1.12433
1.13403
1.23046
1.23152
1.23087
1.24264
1.23522
1.24232
1.24483
1.23721
1.24781
1.26793
1.25056
1.25272
1.24852
1.3789
1.3009
1.31041
1.63935
1.45643
1.74304
2.20539
2.08305
2.58882
3.54813
7.70871
3.17205
4.95929
9.87968
73.795
582.847
736.021
513.336
752.761
198.644
631.019
1116.12
1423.63
1926.64
2962.8
2283.49
1.38949
2.20176
4.32431
234.582
483.927
58.2107
143.051
14.7488
543.081
662.112
344.314
251.184
633.886
390.952
665.245
623.287
511.581
508.014
197.483
214.838
283.715
247.455
179.392
191.874
201.323
179.886
237.74
264.181
251.5
223.48
214.546
199.23
170.661
160.185
142.631
124.367
166.023
118.624
708.498
194.785
506.658
2929.53
1.02209
1.09694
0.92628
0.984694
0.848513
0.863856
0.894093
0.863165
0.86649
0.883992
0.885326
0.911607
0.910089
1.08792
1.10111
1.05078
1.06884
1.01263
1.03249
0.977517
0.999202
0.944997
0.96725
0.936321
1.20964
1.2082
1.20322
1.19717
1.15771
1.17084
1.16293
1.19195
1.1228
1.13472
1.08865
1.10001
1.23241
1.21777
1.25806
1.24803
1.32396
1.29714
1.34148
1.32825
1.28109
1.29547
1.34663
1.30378
1.27876
1.37903
1.29804
1.29836
1.52688
1.51971
1.8459
1.81912
2.61563
2.48099
3.95819
2.98239
5.63152
18.1448
4.42623
8.08914
52.1372
252.493
502.07
1296.54
1412.19
1180.54
1228.59
1610.15
1973
2232.14
29.3427
1.17848
1.21854
2.02487
2.71962
8.91539
376.862
91.6258
184.86
625.163
436.685
230.088
299.211
634.161
654.338
319.828
410.404
664.098
607.613
527.128
419.927
171.518
194.329
187.612
178.239
153.367
157.355
152.09
152.945
156.301
166.766
118.73
122.028
95.7449
96.1644
85.7716
82.9668
112.608
84.2606
1.00096
1.06023
0.890998
0.912737
0.95578
0.897171
0.913256
0.913472
0.916993
0.933373
0.934178
1.05517
1.07046
1.01966
1.04267
0.989865
1.01106
0.96125
0.983506
0.958143
1.20658
1.18318
1.18136
1.18426
1.12978
1.14634
1.17927
1.14623
1.09631
1.11461
1.06783
1.08325
1.26461
1.24106
1.24012
1.30514
1.27975
1.41873
1.40566
1.39382
1.42676
1.54821
1.49938
1.50337
1.46481
1.43852
1.37221
1.33744
1.51337
1.45122
1.56272
2.04242
1.79954
3.35296
3.4761
2.42679
3.27288
5.42225
5.831
23.8089
73.2479
19.4876
202.023
414.432
744.292
1415.28
1954.89
1970.2
2306.13
8029.99
136.887
1.1016
17.5356
45.8627
1.22042
1.30142
1.3803
2.23555
3.12524
7.99822
372.781
258.463
642.174
584.209
200.733
254.096
699.547
679.923
276.615
367.973
641.889
560.202
427.567
146.728
170.525
125.895
129.96
129.496
119.652
103.217
106.031
86.0007
89.7212
80.5171
81.7655
79.4784
82.2333
1.05135
0.934825
0.979968
1.01443
1.02561
0.932337
0.953082
0.943927
0.951761
0.957945
0.959416
1.03391
1.05669
1.00774
1.03023
0.981682
1.00503
0.980609
1.06156
1.17894
1.17788
1.18503
1.16164
1.13986
1.11594
1.18842
1.11465
1.09515
1.09131
1.25947
1.2223
1.28782
1.32952
1.33363
1.4154
1.39701
1.55759
1.59891
1.65677
1.63117
1.85365
1.84102
1.78101
1.59392
1.55436
1.75553
1.71624
1.89081
1.87979
2.6345
2.54388
6.4152
6.59643
6.1624
4.66907
35.5576
26.113
263.439
163.687
596.226
766.066
1117.43
1992.55
272.191
80.8686
134.76
1.26168
1.16984
12.4301
38.606
1.34978
1.6149
2.19557
2.65775
7.95667
550.797
429.71
715.199
694.82
176.61
232.078
728.929
653.227
532.431
418.046
274.617
125.225
145.493
97.9002
107.163
104.579
86.4637
90.1933
84.3635
84.954
85.9991
87.6837
1.117
1.18071
0.983518
0.998092
1.0711
1.14018
0.976359
0.990905
0.977247
0.990012
0.989301
0.995699
1.05683
1.03962
1.01759
1.03432
1.01198
1.25356
1.09514
1.0789
1.07861
1.16921
1.17912
1.1451
1.2345
1.18694
1.15804
1.12809
1.34396
1.33111
1.4248
1.39368
1.52671
1.50746
1.72158
1.67301
1.9226
2.02106
2.51929
2.33832
2.21491
1.99714
1.91796
2.09195
2.08826
2.42181
2.49376
2.46504
5.3358
4.23299
38.6509
12.8395
17.6162
10.224
285.441
155.826
750.225
519.759
1063.89
942.707
417.517
191.975
282.805
62.9852
124.045
1.4384
1.27921
11.8942
32.526
2.61114
1.53323
5.39674
676.734
581.3
757.684
774.652
237.927
173.911
144.463
736.598
544.12
440.065
309.737
254.376
102.06
116.777
87.147
91.028
85.7333
85.5741
90.9553
89.4931
1.21552
1.3236
1.02768
1.08339
1.14339
1.24963
1.02493
1.05405
1.03577
1.01042
1.04911
1.04775
1.08203
1.05605
1.07411
1.33073
1.28696
1.14469
1.12967
1.14663
1.13446
1.19878
1.26814
1.18054
1.20516
1.17402
1.52197
1.51521
1.44868
1.66577
1.62376
1.87362
1.98855
1.94431
2.34745
2.28971
4.17474
3.20628
3.31037
2.99716
2.82389
2.71177
3.85032
3.84751
3.74779
3.38643
6.47081
23.4282
16.2511
200.603
90.1592
94.3379
586.203
408.939
961.753
783.544
342.155
538.42
645.328
163.793
314.247
48.7706
114.621
1.46252
1.83692
7.57449
31.1523
2.0218
4.61834
794.937
768.125
795.304
775.623
851.032
149.879
174.922
115.956
660.52
503.252
333.855
280.187
171.012
87.3776
97.3381
85.3401
83.4536
91.4542
88.6026
1.37168
1.56156
1.10233
1.1689
1.2557
1.42377
1.11183
1.08619
1.14882
1.14387
1.14106
1.13666
1.12915
1.42676
1.32284
1.19926
1.21047
1.18015
1.23731
1.31064
1.25819
1.31355
1.25216
1.85301
1.75984
1.71807
1.57715
2.28873
2.59702
2.40209
2.61214
2.95917
2.79284
3.89638
3.32935
4.97002
5.4343
5.37185
3.66223
8.26445
8.52085
6.59533
75.3898
38.1126
201.579
183.3
507.661
399.008
798.672
707.267
365.527
547.721
677.035
165.419
323.557
45.0232
113.806
2.50436
1.84282
7.93513
5.34091
24.0857
672.084
890.037
880.465
889.909
814.779
863.973
702.74
898.774