/*--------------------------------*- C++ -*----------------------------------*\
  =========                 |
  \\      /  F ield         | OpenFOAM: The Open Source CFD Toolbox
   \\    /   O peration     | Website:  https://openfoam.org
    \\  /    A nd           | Version:  8
     \\/     M anipulation  |
\*---------------------------------------------------------------------------*/
FoamFile
{
    version     2.0;
    format      ascii;
    class       volScalarField;
    location    "10000";
    object      k;
}
// * * * * * * * * * * * * * * * * * * * * * * * * * * * * * * * * * * * * * //

dimensions      [0 2 -2 0 0 0 0];

internalField   nonuniform List<scalar> 
4109
(
0.0294936
0.0310431
0.029742
0.0310134
0.0317424
0.0314663
0.0319627
0.03015
0.0330108
0.0325449
0.0325708
0.0333186
0.0298507
0.0316902
0.032409
0.0337109
0.0334961
0.03351
0.0338681
0.0325536
0.0299015
0.0313737
0.0314109
0.0345923
0.0346237
0.0350341
0.0295908
0.0316259
0.0298768
0.0348557
0.0335083
0.0328086
0.0313972
0.0312891
0.0322226
0.0351654
0.0350532
0.0361743
0.0318926
0.0298495
0.0315742
0.0317704
0.0302767
0.0355139
0.0341216
0.0954217
0.0481547
0.0334854
0.0329016
0.031251
0.0322432
0.0358538
0.0366373
0.0379046
0.0336113
0.0317939
0.029365
0.031897
0.0323665
0.0331454
0.0328791
0.121498
0.0367272
0.035103
0.034444
0.0418702
0.0870263
0.0337479
0.0327678
0.0324806
0.0393813
0.0373379
0.0425474
0.0413715
0.0411864
0.0341538
0.0340535
0.0326719
0.0311591
0.0328946
0.0325821
0.0329289
0.0334803
0.0336141
0.0384302
0.045253
0.100149
0.131043
0.13241
0.0379105
0.0375049
0.0358032
0.0351129
0.0345487
0.0382825
0.0665308
0.0337304
0.032564
0.0427003
0.0410166
0.0398859
0.0429949
0.043713
0.0432582
0.0434024
0.0352868
0.0347664
0.0339335
0.0321081
0.0341318
0.0388403
0.0333685
0.0338816
0.0341181
0.0346741
0.13821
0.0527449
0.0664515
0.0893293
0.140013
0.137567
0.043286
0.0397092
0.0385823
0.036838
0.0361073
0.0354206
0.0344098
0.0668946
0.0344532
0.033817
0.043123
0.0417124
0.0448116
0.0440366
0.0455689
0.0443332
0.0359681
0.0356526
0.035575
0.0337213
0.0348149
0.0399915
0.0339472
0.0345554
0.0350242
0.0352688
0.124863
0.073491
0.140773
0.0934686
0.143827
0.0504001
0.0405643
0.0394826
0.0376553
0.0368704
0.0361797
0.0354487
0.0343828
0.0614659
0.0330332
0.0426388
0.0412535
0.0456743
0.0437598
0.046447
0.0468461
0.0476455
0.0371338
0.0366144
0.0363293
0.0345561
0.0358002
0.0412127
0.0347742
0.0354559
0.0356977
0.0363703
0.0857468
0.156853
0.0884551
0.147529
0.147758
0.0511661
0.038783
0.0397309
0.0378945
0.0361473
0.0370802
0.0356146
0.0673012
0.0339074
0.0409557
0.0420216
0.0451887
0.0433404
0.0464316
0.0480914
0.0477229
0.0507254
0.0379034
0.0376175
0.0376502
0.0361746
0.0360478
0.0414345
0.035504
0.0361264
0.0367111
0.0370908
0.088311
0.158456
0.154123
0.0931433
0.157214
0.0507778
0.0388934
0.0400826
0.0375248
0.0364929
0.0688126
0.0349686
0.0411787
0.0424252
0.0445454
0.0436488
0.0459791
0.0480246
0.0491898
0.051137
0.053491
0.0391801
0.0385743
0.038398
0.0372314
0.0369125
0.0424625
0.0370112
0.0362537
0.0400884
0.0375824
0.0382753
0.0849033
0.166445
0.0967923
0.16154
0.163426
0.0516259
0.0392032
0.0399783
0.037898
0.0722161
0.035352
0.0415112
0.0424203
0.0449574
0.0439934
0.0463104
0.0473383
0.0495491
0.0514384
0.0529531
0.0570317
0.0401948
0.0393393
0.0387303
0.041063
0.0372225
0.0428839
0.0374982
0.0414013
0.0391362
0.0387238
0.173598
0.0846281
0.168897
0.100556
0.173555
0.0522242
0.178178
0.0390001
0.0403526
0.0738791
0.0361559
0.0414863
0.042675
0.0450576
0.0440032
0.0466198
0.0476818
0.0489256
0.0514043
0.0533722
0.0562288
0.0566062
0.0607034
0.0393255
0.0407661
0.0390695
0.0422313
0.042458
0.0379197
0.0437169
0.0391343
0.0404115
0.0397641
0.0849819
0.181518
0.175602
0.0991206
0.179871
0.0529405
0.192185
0.184677
0.201925
0.165711
0.185362
0.156429
0.0883282
0.0370692
0.040317
0.0423383
0.0432151
0.0439458
0.045434
0.0467574
0.0477075
0.0491797
0.0578432
0.0504672
0.0532129
0.0559857
0.0613238
0.0648614
0.0632742
0.0693733
0.0416362
0.0411542
0.043447
0.0438744
0.0414032
0.0392329
0.0452238
0.0398998
0.0409902
0.0875005
0.194274
0.181038
0.0528702
0.291805
0.259642
0.201859
0.172462
0.195364
0.221414
0.0754763
0.0759825
0.0811417
0.159978
0.149359
0.151417
0.148046
0.159317
0.15056
0.0387262
0.0452329
0.0452825
0.0459864
0.0606697
0.047005
0.0479488
0.0493294
0.0507211
0.0577031
0.0522391
0.0552907
0.0651246
0.0617056
0.0681427
0.0678822
0.0765104
0.0808355
0.0429086
0.0436708
0.0450706
0.0450186
0.0427835
0.0421231
0.0402972
0.044922
0.0414816
0.0915232
0.218416
0.302446
0.258241
0.177273
0.194673
0.221846
0.0795141
0.0814118
0.0869646
0.0826626
0.085638
0.132774
0.139184
0.139541
0.147218
0.160072
0.240395
0.119264
0.0441254
0.0474632
0.0471607
0.0600608
0.0611583
0.0491738
0.0491163
0.0506094
0.0523905
0.05714
0.0540081
0.0657927
0.0637523
0.0692208
0.0721347
0.0768433
0.0786503
0.0456585
0.0449447
0.0423631
0.0475729
0.0465223
0.0439286
0.0434544
0.0497168
0.0429092
0.0417909
0.0498524
0.0973156
0.294377
0.324317
0.260233
0.176716
0.19758
0.225335
0.0820357
0.0895074
0.0979474
0.087682
0.0919248
0.122685
0.10927
0.0871524
0.0904033
0.129305
0.137202
0.147586
0.158635
0.257673
0.211407
0.0650549
0.0491775
0.0496753
0.0593154
0.0612047
0.0502859
0.0506704
0.0523627
0.0541236
0.0560351
0.0663928
0.0639626
0.0696927
0.0728347
0.0749041
0.0782349
0.0475254
0.0496678
0.0476117
0.0438727
0.043934
0.0454458
0.0467594
0.0447534
0.0509279
0.0485202
0.169935
0.222075
0.0434372
0.0412716
0.304913
0.257193
0.255513
0.326934
0.265677
0.17739
0.199507
0.230036
0.0861815
0.0808368
0.0934813
0.0994576
0.0972087
0.107371
0.118065
0.0920539
0.0961632
0.127289
0.134558
0.147115
0.162411
0.31827
0.27342
0.319582
0.0649563
0.0524514
0.0511499
0.0581017
0.0604347
0.0523505
0.0522428
0.0538896
0.0560982
0.0628431
0.0655458
0.0683769
0.0715453
0.07466
0.0773511
0.0791724
0.05073
0.0507088
0.0453181
0.0450457
0.0462647
0.0476403
0.0493121
0.0529671
0.0500676
0.0451154
0.051084
0.0557054
0.31422
0.260681
0.243283
0.192409
0.191702
0.331402
0.261553
0.17987
0.190323
0.209855
0.0906919
0.0845431
0.0826235
0.117015
0.102104
0.106039
0.0975871
0.101434
0.125649
0.133304
0.149907
0.164021
0.0870371
0.350411
0.329262
0.352876
0.0777341
0.055127
0.0538548
0.0581752
0.0604453
0.0540304
0.0539128
0.0560533
0.0628485
0.0654781
0.0682847
0.0713625
0.0739964
0.0759228
0.0790992
0.0798322
0.0532129
0.054194
0.0469656
0.046971
0.0482613
0.0496738
0.0508926
0.0548004
0.0517955
0.0508242
0.0469149
0.047902
0.311106
0.166955
0.230566
0.222495
0.192826
0.334703
0.262779
0.175032
0.195203
0.215467
0.241861
0.0956993
0.0839857
0.0893884
0.0840318
0.103494
0.114226
0.108682
0.12574
0.138973
0.152621
0.160453
0.0879293
0.386893
0.371454
0.405583
0.0809125
0.0590827
0.0559646
0.0604228
0.0579751
0.0560392
0.0561969
0.062665
0.0653808
0.0709956
0.06797
0.0733246
0.0758572
0.0759436
0.0787375
0.0821515
0.0568709
0.056096
0.0573879
0.0489199
0.04873
0.0508966
0.0524992
0.0535602
0.0530926
0.0487641
0.0504363
0.316673
0.255876
0.144123
0.150031
0.205882
0.197877
0.174268
0.271596
0.331827
0.178324
0.194489
0.211276
0.236283
0.101053
0.0855576
0.0936483
0.0868775
0.0896803
0.110237
0.114315
0.106576
0.127834
0.140724
0.150769
0.164765
0.114255
0.425779
0.426241
0.439807
0.0927068
0.0628309
0.0580678
0.0606819
0.0582863
0.058018
0.0632399
0.0653627
0.0704025
0.0681896
0.0741608
0.0760722
0.0781836
0.0808139
0.0838559
0.060124
0.0598697
0.0596107
0.0555849
0.0509801
0.0510868
0.0525645
0.0534746
0.0544421
0.0507346
0.0545771
0.332287
0.280528
0.242757
0.220205
0.125446
0.133328
0.147221
0.189091
0.178081
0.162938
0.112964
0.273096
0.326601
0.331985
0.177865
0.194801
0.225571
0.211583
0.099395
0.0881184
0.0924775
0.0893792
0.112206
0.119609
0.105151
0.165273
0.130088
0.137725
0.152394
0.113154
0.473143
0.482272
0.505355
0.0599288
0.0994545
0.064587
0.0611478
0.0607653
0.066695
0.0651656
0.0716397
0.0720623
0.0693426
0.0750062
0.0783799
0.0814372
0.0646471
0.0625503
0.0620266
0.0576443
0.0568251
0.0527314
0.0522501
0.0541413
0.0559709
0.0525819
0.0562106
0.0689927
0.0741641
0.276864
0.245261
0.214982
0.196168
0.120339
0.135278
0.150085
0.170769
0.160963
0.108479
0.0999263
0.0926452
0.0825023
0.0790684
0.316712
0.265745
0.316411
0.271536
0.166291
0.179113
0.192034
0.220965
0.0985759
0.0905874
0.0934057
0.120369
0.112729
0.105503
0.102385
0.152049
0.151899
0.129711
0.141208
0.136846
0.561948
0.530004
0.526483
0.0666817
0.101094
0.0631772
0.0643502
0.0721649
0.0683713
0.0746814
0.0773104
0.0802703
0.0648863
0.0643759
0.059975
0.0586213
0.0573937
0.0549058
0.0544396
0.0561992
0.06078
0.0546784
0.0761813
0.0696917
0.0729739
0.240222
0.219898
0.193322
0.175527
0.120687
0.137632
0.147274
0.15429
0.11371
0.0996839
0.102293
0.0776867
0.0909418
0.0802071
0.0844412
0.270056
0.251219
0.237679
0.216712
0.160549
0.174382
0.199627
0.149446
0.0968164
0.0934655
0.117314
0.108098
0.113227
0.106384
0.100771
0.142453
0.14388
0.130359
0.109739
0.615753
0.595897
0.586002
0.0835002
0.105974
0.0673842
0.061138
0.0717544
0.0755891
0.0788885
0.0673075
0.0623843
0.0612879
0.0601526
0.0581436
0.0566672
0.0559436
0.0586219
0.0562865
0.0741111
0.0703321
0.211557
0.215162
0.197772
0.17387
0.157331
0.127472
0.135488
0.140605
0.116536
0.110487
0.102395
0.078811
0.0817585
0.0956394
0.0849412
0.0893226
0.224162
0.214856
0.211726
0.196732
0.140615
0.162656
0.171076
0.151435
0.194424
0.0963315
0.12077
0.11463
0.111044
0.10422
0.0994697
0.123612
0.130032
0.131213
0.115776
0.730957
0.687049
0.732796
0.133434
0.0708371
0.0790712
0.0747133
0.0781516
0.0650864
0.063498
0.0619533
0.0605186
0.0588306
0.0584205
0.0597696
0.058753
0.0741442
0.0679301
0.194005
0.195429
0.176158
0.155573
0.1426
0.125506
0.129216
0.116374
0.108725
0.101897
0.0777907
0.0812213
0.0959921
0.0856277
0.0902391
0.196333
0.189997
0.172801
0.126195
0.132678
0.142127
0.150054
0.175249
0.112162
0.107061
0.101981
0.117577
0.11505
0.122635
0.126155
0.855555
1.17256
0.321253
0.0750229
0.0880398
0.0781148
0.0665036
0.0650156
0.0628517
0.0610202
0.0603374
0.0622019
0.0711032
0.0691893
0.175154
0.173412
0.156032
0.141084
0.130885
0.119481
0.111175
0.103882
0.0975483
0.0744834
0.0782483
0.0918788
0.0823183
0.0868735
0.171672
0.173264
0.15635
0.127904
0.133963
0.140934
0.12328
0.155992
0.108651
0.104317
0.112294
0.113359
0.118378
0.198955
1.66925
1.61406
0.579328
0.080112
0.122172
0.0672455
0.0655821
0.0627095
0.0633864
0.06901
0.0726282
0.0706923
0.156781
0.156541
0.14143
0.129762
0.12095
0.112623
0.105219
0.0989907
0.0758741
0.079843
0.0932561
0.0837555
0.0884257
0.154182
0.154669
0.142085
0.125249
0.129737
0.118804
0.141626
0.106208
0.10896
0.109898
0.112766
4.05678
0.331453
2.33353
2.47959
1.16842
4.49725
0.0682296
0.0658028
0.0670722
0.0668073
0.0772259
0.0734344
0.0713263
0.139985
0.140841
0.130337
0.120652
0.112196
0.10549
0.0990715
0.0773421
0.0806352
0.0940963
0.08502
0.088967
0.13751
0.137775
0.13022
0.119148
0.112973
0.127975
0.130351
3.27162
3.60132
0.636016
3.59987
3.5806
4.88546
3.96709
6.43362
0.0691853
0.0659336
0.0704061
0.0706081
0.0943488
0.0744883
0.0709335
0.131141
0.130744
0.120701
0.112466
0.105464
0.0995873
0.0780783
0.0817625
0.094423
0.089892
0.0856633
0.129611
0.122246
0.113346
0.120803
0.12326
0.122457
2.21228
2.86053
3.18056
1.20761
4.51398
3.48145
6.19994
6.25918
0.0709379
0.0705045
0.0754165
0.134993
0.0753581
0.0715699
0.11844
0.118977
0.11166
0.104913
0.0994222
0.0779733
0.0825347
0.094641
0.0904025
0.0862712
0.122343
0.115437
0.116253
0.11843
0.116892
0.116214
1.93733
1.80945
2.49654
2.78403
3.44203
5.86294
4.10798
3.0287
5.86362
6.05955
0.0731589
0.0746839
0.0803179
0.0744929
0.0754619
0.0775514
0.114041
0.106965
0.102066
0.0968117
0.0814783
0.0818165
0.093736
0.0890156
0.0867671
0.115173
0.112629
0.113614
0.1119
0.110957
1.52362
1.47748
2.164
2.39512
6.31127
2.9807
5.59525
5.42198
3.68326
2.5897
5.49506
5.85222
0.0749061
0.0774228
0.0775026
0.0788066
0.08198
0.109998
0.105375
0.101391
0.0970386
0.0836362
0.0848376
0.0936748
0.090298
0.087576
0.109164
0.107279
0.105299
6.14497
1.19363
1.20101
1.84528
1.98294
5.89599
2.58196
5.25548
5.15515
4.9655
3.23833
2.13124
5.09628
5.64065
0.0772132
0.0780772
0.0802054
0.0816228
0.10423
0.102421
0.0998777
0.0967542
0.084173
0.0862861
0.0938316
0.0910668
0.0885804
6.72985
5.57156
0.933871
0.961261
1.51151
1.46816
5.43232
2.22695
5.10363
4.80246
4.70482
4.49141
2.74404
1.57429
4.65419
5.42225
7.71695
6.19538
5.00209
0.725567
0.737605
1.0983
0.598986
4.94396
1.88988
4.96094
4.68334
4.35603
4.24499
3.98916
2.11201
0.670429
4.12944
5.1913
8.45717
7.31819
5.61854
4.43885
0.548717
0.491802
0.39823
4.43014
1.55554
3.49727
4.65095
4.26069
3.91314
3.765
3.42568
1.04657
3.41801
9.87229
7.99163
6.84957
5.00474
3.87353
0.367038
0.127279
3.86023
1.36412
2.74103
3.05128
4.32781
3.83799
3.46238
3.23622
2.71339
2.17238
11.1921
9.1188
7.55524
6.31335
4.36297
3.2778
0.0831673
3.12353
1.42683
2.3775
2.62959
3.98909
3.40453
2.97518
2.57807
1.51257
11.8833
11.1959
8.24721
7.119
5.67986
3.6816
2.56277
1.72017
1.30821
1.2781
2.05784
2.21896
3.62356
2.93445
2.37937
1.48397
12.1786
11.5543
10.9891
7.35493
6.64378
4.90841
2.89185
1.35751
1.48533
1.19871
1.14328
1.76402
1.80814
3.20568
2.35857
1.39306
8.19588
12.1417
11.0018
10.5333
6.45781
6.09154
3.95757
1.65789
1.59759
1.38046
1.09211
1.01802
1.4813
1.38833
2.6678
1.41465
6.90958
8.08095
11.8254
10.2441
9.87973
5.55287
5.28135
2.5746
1.60919
1.48253
1.27297
0.984511
0.895794
1.19456
0.948724
1.76087
6.28199
6.61552
7.74773
11.233
9.30124
9.05252
4.81216
3.46512
1.51209
1.49313
1.36503
1.15975
0.870531
0.763075
0.869617
0.46858
6.2974
6.09899
6.19538
7.24964
10.4065
8.299
8.02685
3.54787
1.33095
1.40529
1.37475
1.24213
1.03568
0.740165
0.587249
0.403883
6.85035
6.09709
5.78407
5.70188
6.63182
9.25191
7.27732
6.53066
1.42726
1.21903
1.29609
1.25102
1.10841
0.889604
0.566536
0.262906
8.05927
6.5429
5.77171
5.37913
5.15291
5.89775
7.74769
5.84127
2.64733
1.27947
1.1104
1.1813
1.1165
0.95213
0.69099
0.250283
12.0174
7.92278
6.12229
5.362
4.89982
4.53888
4.98444
6.1459
3.54067
2.30457
1.14515
1.00096
1.05558
0.959374
0.741556
0.334339
11.7867
12.0201
7.56563
5.63287
4.88065
4.33867
3.81601
3.69404
4.95585
3.08135
1.99858
1.02015
0.88499
0.907654
0.74787
0.371165
11.0998
11.5004
11.77
7.04242
5.08933
4.31824
3.65263
2.89345
5.13993
4.64473
2.64901
1.71423
0.897752
0.752484
0.706882
0.377013
9.72966
11.1088
10.9955
11.3083
6.39787
4.48165
3.63008
2.76208
5.23701
4.71763
4.32291
2.23269
1.43912
0.76424
0.57674
0.348485
8.40342
8.96505
10.9092
10.2886
10.6328
5.62478
3.757
2.72971
5.56619
4.78095
4.29238
3.98431
1.819
1.15965
0.587422
0.259309
7.78553
7.93338
8.09722
10.5
9.47014
9.69979
4.69131
2.80353
5.85964
5.12663
4.33435
3.86752
3.61861
1.39804
0.842271
0.262832
6.75498
7.38182
7.48533
7.17658
9.87295
8.57707
8.27166
3.58478
6.65216
6.26607
5.42419
4.6783
3.89332
3.43182
3.19907
0.952076
0.382995
6.13725
6.21884
6.91605
7.01484
6.21098
8.97677
7.60639
5.67348
5.08227
6.44247
5.93838
4.9719
4.22049
3.44418
2.95771
2.65517
0.456132
6.24962
5.56206
5.63557
6.38904
6.51557
5.19637
7.65329
6.02911
3.40976
4.53509
4.68565
6.22491
5.56955
4.49927
3.74183
2.95731
2.373
1.72594
5.84708
4.99032
5.01548
5.74345
5.93697
4.34526
5.36634
2.94593
2.06784
4.31062
4.02638
4.25841
6.00326
5.16715
3.99672
3.21286
2.36036
1.4039
2.44262
3.56294
5.39515
4.4256
4.37043
4.96649
5.13588
3.17568
2.53902
1.63353
3.82478
3.54591
3.81489
5.77791
4.7176
3.43136
2.55268
1.3559
1.98658
3.13551
4.91516
3.86043
3.68721
4.0069
3.44996
2.18679
1.28416
3.37772
3.09112
3.34977
5.54636
4.18056
2.71231
1.43978
1.61986
2.74905
4.40839
3.26563
2.89634
2.62363
1.85782
1.00845
2.9579
2.64639
2.83228
5.30096
3.44675
1.48557
1.31481
2.39059
3.84282
2.55427
1.67446
1.55495
0.786436
2.54672
2.17962
2.16834
2.14596
1.0508
2.0447
3.11245
1.35872
1.36864
0.596487
2.11101
1.606
1.04414
0.80582
1.68131
1.72992
0.399703
1.5681
0.66261
0.539084
1.2321
0.0959856
0.64673
0.14857
0.474834
0.0862871
0.084341
0.0856278
0.0856374
0.0870849
0.0868568
0.0875061
0.0875384
0.0882496
0.0827381
0.0838419
0.0842683
0.085468
0.0857857
0.0869331
0.0875458
0.0918802
0.0933102
0.0946505
0.0968909
0.09834
0.0884445
0.0892437
0.0882736
0.0884319
0.0887419
0.0883793
0.0896063
0.0893369
0.090377
0.101025
0.102178
0.0814157
0.08252
0.0831421
0.0842319
0.0848573
0.0858043
0.0867987
0.0878895
0.0888488
0.0898276
0.0909306
0.0922958
0.0940776
0.0955696
0.0986364
0.100131
0.105623
0.106368
0.0902313
0.0911045
0.0921593
0.0931213
0.0944972
0.0959447
0.0983212
0.0896359
0.0900935
0.0896196
0.0896326
0.0905178
0.0898749
0.0918757
0.0913559
0.0927016
0.0981483
0.0999634
0.110614
0.11228
0.10485
0.104605
0.109697
0.0804112
0.0814372
0.0823019
0.0833112
0.0842615
0.0852603
0.0864634
0.0873959
0.0891226
0.0902087
0.0916672
0.0929816
0.0970212
0.0984475
0.101468
0.102637
0.107157
0.108413
0.113542
0.115683
0.122027
0.122143
0.129127
0.0910777
0.0918022
0.0927631
0.0937814
0.0952512
0.0908136
0.0910864
0.0911649
0.090853
0.0924217
0.0916467
0.09512
0.0940639
0.0933455
0.0956633
0.0993137
0.0995447
0.104575
0.106202
0.125757
0.113806
0.121418
0.110582
0.11348
0.0800087
0.0809396
0.0820822
0.0830793
0.0843431
0.0852558
0.0867397
0.0876513
0.0892614
0.0902273
0.0924727
0.094602
0.102729
0.0998659
0.106128
0.10866
0.113096
0.114582
0.119451
0.129164
0.134829
0.135672
0.149393
0.152019
0.145717
0.154251
0.154832
0.196054
0.0920559
0.092814
0.0936339
0.0945892
0.097469
0.096225
0.0920967
0.0921329
0.0927791
0.0923016
0.0952382
0.0942256
0.0934812
0.0996736
0.0983496
0.0959512
0.0983963
0.100295
0.248666
0.214757
0.30759
0.104687
0.104995
0.110589
0.112813
0.127363
0.129456
0.16534
0.144567
0.121914
0.127957
0.0807331
0.0813184
0.0829386
0.0835442
0.0853379
0.0858697
0.0878783
0.0886311
0.0917898
0.091038
0.0953583
0.0967357
0.10157
0.103911
0.113488
0.111673
0.120889
0.129673
0.136658
0.137423
0.14927
0.714389
0.702424
0.493929
0.16226
0.171083
0.186373
0.192676
0.202526
0.217853
0.218435
0.491507
0.293017
6.43703
7.00347
6.85449
6.54139
7.16354
7.18546
6.95688
6.58415
0.0931956
0.0935564
0.0945591
0.0954934
0.0971854
0.0961145
0.0934787
0.093297
0.0952796
0.0944604
0.093942
0.1019
0.100516
0.0992003
0.0980618
0.0967058
0.0996354
0.105643
0.101575
0.104953
6.03588
5.06841
1.86221
1.31928
0.772861
0.174845
0.249644
0.305717
0.565132
0.112882
0.113215
0.11425
0.113768
0.125873
0.127923
0.139758
0.136133
0.164133
6.22931
6.92019
4.54369
7.14415
7.20576
7.19029
5.44587
6.07996
6.16822
7.17451
0.0869583
0.0845393
0.0886798
0.0873284
0.0910743
0.0900588
0.0936768
0.093492
0.0966142
0.0963608
0.100438
0.100346
0.108094
0.111145
0.116728
0.115747
0.121431
0.146844
0.124589
0.159738
0.211154
0.203508
0.247652
0.248809
0.243992
1.2801
1.78647
3.42026
2.48525
1.29586
0.996661
0.356846
0.394942
0.499121
0.505306
1.02155
0.596304
0.580196
3.88699
6.05889
4.96687
5.26951
6.15836
6.68982
6.92265
6.91568
4.97663
4.92457
7.12874
7.08269
5.57469
5.79468
6.38383
7.02005
6.60023
6.96513
0.0944606
0.0946744
0.0955553
0.0968508
0.0972286
0.0962144
0.0957139
0.0950037
0.0946376
0.103986
0.102515
0.101115
0.0999383
0.0988843
0.0978917
0.0975094
0.10051
0.100884
0.104796
0.10528
0.109764
0.10459
2.68348
4.52711
3.53027
5.91371
4.61589
1.6764
2.7061
1.43482
0.753298
0.11317
0.609904
0.200115
0.348458
0.256166
0.123265
0.120251
0.129259
0.124434
0.132335
0.131039
0.149229
0.143265
0.200421
6.24635
7.08778
5.94641
4.2885
4.70127
3.6519
7.32334
7.42729
7.24745
5.99571
4.52772
5.61528
0.188866
0.103204
2.10925
0.646721
0.135756
0.105394
0.124275
0.105209
0.119341
0.104639
0.117828
0.112405
0.109782
0.121468
0.120451
0.14302
0.175976
0.164969
0.201357
0.283315
0.252482
0.336665
0.66173
0.377522
0.407537
0.903166
1.02969
0.552139
0.485821
0.65597
0.633706
0.798836
0.799652
1.92856
2.5469
3.68295
2.97826
2.08564
1.51579
1.16541
1.16971
1.75766
1.31115
1.42962
4.93863
4.32204
5.15481
6.16936
5.86779
6.84979
6.64587
7.1056
7.0119
7.05434
5.21979
5.77639
6.98988
7.00417
6.84527
6.81292
6.51203
0.0976846
0.0956962
0.0957572
0.0966029
0.0971998
0.0964498
0.0961673
0.0983372
0.106113
0.104606
0.103011
0.101721
0.100582
0.0994377
0.0988004
0.0978644
0.108095
0.10574
0.107976
0.110326
0.108803
0.110229
0.101442
0.101336
0.10178
0.103438
0.114067
0.108354
0.110036
0.105422
4.62927
4.09887
3.03581
0.983807
2.53531
1.74141
0.119522
0.132945
0.13158
1.09837
0.26287
0.561496
0.363687
0.143463
0.13979
0.152485
0.148615
0.176231
0.165211
0.276708
4.41619
6.61355
7.22252
6.23298
5.30817
7.4553
3.35642
3.9049
2.72589
7.66185
7.44975
6.66583
5.50152
3.99918
4.73711
4.74149
1.193
0.340541
4.56647
3.58402
0.686468
0.334966
0.521559
0.254441
0.401489
0.216238
0.342292
0.182537
0.247494
0.446052
0.779572
0.555161
0.962783
0.620918
0.758297
1.34625
1.67196
1.83
1.18529
1.19739
1.86086
2.09376
1.24459
1.37533
1.67299
1.58403
1.95975
1.67445
3.94937
2.76638
3.31136
3.14336
2.68382
2.53674
2.90884
2.19015
2.70131
5.3887
4.5246
6.7442
6.0597
6.36861
7.07511
6.97295
6.92112
7.00112
6.52572
6.6132
0.10997
0.108458
0.0970658
0.098244
0.097538
0.0969996
0.0970137
0.0985749
0.0997012
0.104782
0.102922
0.102217
0.10075
0.100235
0.0991504
0.0988472
0.098096
0.106734
0.104837
0.105984
0.107102
0.105414
0.106762
0.101116
0.101721
0.103042
0.105633
0.120817
0.113501
0.114705
0.108719
1.79918
2.65265
3.5284
0.129592
0.142664
0.141353
0.163878
0.159291
0.784219
1.83926
0.360484
0.709612
0.199572
0.182773
0.274222
0.236376
0.369756
3.59638
5.12928
4.76322
6.87861
6.98516
7.36272
7.79137
7.71956
2.65454
3.60161
7.40821
6.47103
5.72594
4.05176
4.76345
4.77062
2.08615
4.79471
5.11648
5.6387
3.79035
2.39495
5.78655
6.27725
3.3803
1.73725
2.62089
1.23119
2.01862
1.02307
1.35967
1.58019
1.20688
2.18787
1.79535
1.7311
1.70379
1.82578
2.77654
2.87099
2.99912
3.31604
2.53545
2.3739
3.40255
3.59098
2.57462
2.82576
3.30466
3.11559
3.49689
4.70751
4.18928
4.54829
3.71779
4.26366
4.23174
3.99018
4.41077
6.37138
5.70653
6.9707
6.8182
6.91137
6.92599
6.3521
6.45632
0.111828
0.109318
0.107507
0.106011
0.0985783
0.0984298
0.0987419
0.0995361
0.100673
0.103867
0.102439
0.101764
0.100651
0.100238
0.0994199
0.0994636
0.103702
0.104573
0.103088
0.104272
0.103446
0.104478
0.102069
0.102164
0.104005
0.109926
0.105699
0.102595
0.130491
0.12155
0.122582
0.115442
0.138609
3.15807
2.29793
0.154914
0.151593
0.184875
0.179331
0.264093
0.313217
0.249511
0.790982
2.07719
0.95657
0.499729
0.417808
0.863143
5.07854
4.23306
7.38284
6.75863
7.96112
7.84718
7.56309
7.28706
6.88247
6.53772
0.210537
0.705354
4.68032
5.55238
1.28227
3.89447
5.77809
5.47016
6.30829
6.05828
5.529
6.20888
5.92858
5.31237
5.37354
3.55651
4.28991
3.29621
2.92012
2.89789
4.2371
3.34013
4.18589
3.51522
3.69379
4.28955
4.65814
4.60084
4.71074
4.25134
4.11748
3.76088
4.91978
5.09253
4.25953
4.44549
5.11529
5.01057
5.81484
6.08013
5.63487
5.50618
5.80995
5.48542
5.69683
6.82131
6.70151
6.68329
6.72467
6.07288
6.17604
0.0883032
0.109358
0.112428
0.111046
0.109207
0.106993
0.105569
0.104043
0.09964
0.099822
0.100171
0.100278
0.102631
0.102369
0.101657
0.10091
0.10042
0.100059
0.101264
0.102194
0.101461
0.102485
0.102115
0.103026
0.102251
0.106257
0.107071
0.116211
0.10518
0.106716
0.142511
0.126333
0.130033
0.117092
0.159515
0.186312
0.168496
4.47228
2.79446
0.249332
0.210102
0.489617
0.407629
1.21346
1.0475
0.887091
2.33087
3.05956
1.65906
7.34072
6.22752
8.09309
8.20921
7.95458
7.56034
7.10189
6.74553
0.148018
0.453017
4.10863
6.35628
0.844002
2.38475
6.33678
6.15555
5.94287
6.5458
6.072
5.58294
6.94268
6.237
6.87161
6.45778
6.04471
6.03668
5.64038
4.70231
4.7538
5.93683
5.41726
5.16838
5.39505
5.61134
5.49954
5.75623
5.68178
5.63631
5.58204
5.88741
5.13199
5.41432
5.92295
5.91084
5.63861
5.73418
6.03632
6.07642
6.29391
6.22874
6.63653
6.40279
6.38142
6.46178
6.51028
5.76736
5.92024
0.0812917
0.0851356
0.0894903
0.108524
0.111028
0.110167
0.108877
0.108317
0.106996
0.105156
0.102738
0.104171
0.107606
0.108723
0.101436
0.100388
0.0997168
0.0998965
0.100681
0.0999316
0.0998272
0.100272
0.100896
0.100628
0.101576
0.101466
0.102139
0.103064
0.105524
0.108873
0.114489
0.117194
0.110838
0.139046
0.163137
0.125802
0.142462
0.177355
0.231757
0.201126
0.251894
0.390112
0.285111
6.40931
5.3526
1.12042
0.821308
2.52862
1.975
4.38454
5.80146
3.95272
8.4104
8.36432
8.49822
8.01765
7.69708
7.1875
0.13297
0.320061
3.27302
6.21656
0.55892
1.58588
6.09934
6.91298
5.33416
5.50435
6.67882
5.91883
6.84424
6.61163
5.25081
5.76538
6.50701
6.38542
6.50631
6.22887
6.435
5.79603
5.99374
6.12453
6.12142
5.87719
5.92112
5.76592
5.79617
5.7597
5.65374
5.70001
5.5778
5.42398
5.41722
5.94666
5.93573
5.9672
5.8513
6.007
5.95803
5.98489
5.86725
5.99566
6.23276
6.29588
6.00683
5.58531
5.75072
0.0798491
0.0815227
0.0836167
0.088259
0.0916218
0.107647
0.107288
0.106747
0.105892
0.105941
0.101945
0.103819
0.103085
0.104861
0.105327
0.105129
0.104386
0.105593
0.103394
0.103374
0.101401
0.101475
0.103489
0.100558
0.100018
0.100392
0.100161
0.101776
0.100291
0.100535
0.100848
0.101112
0.101416
0.101964
0.102342
0.105721
0.111412
0.107682
0.115421
0.124544
0.122184
0.130397
0.158579
0.182996
0.142417
0.161804
0.211116
0.277983
0.677955
0.612389
0.482465
0.912642
1.83739
1.79815
8.61358
7.78253
4.25689
4.4327
6.74634
7.9161
6.74956
9.19692
8.70606
8.47018
8.02935
0.125555
0.245022
2.48019
5.11479
0.38605
1.08103
5.20519
7.04073
5.64778
5.15749
6.79147
6.34771
5.6636
5.30643
4.96192
4.94012
6.01048
6.12602
5.20817
5.6534
5.40149
5.83869
5.75959
5.79517
5.78936
5.42193
5.45117
5.01476
5.00204
4.89219
5.17011
4.77335
4.62969
4.06485
3.69965
4.36688
4.45232
5.39137
5.81357
5.81682
5.30361
5.40222
5.45349
5.40799
5.04278
5.4774
0.105012
0.0799024
0.0806995
0.0819042
0.0839138
0.0863061
0.0905873
0.0941359
0.0809473
0.0809737
0.0825054
0.0822593
0.0844164
0.0837404
0.0994836
0.0998616
0.0976154
0.0980872
0.0956136
0.0962182
0.0934581
0.0942581
0.0866419
0.0856732
0.0889929
0.0876984
0.0912484
0.0921055
0.0898988
0.104495
0.103983
0.103446
0.103806
0.102818
0.102498
0.103224
0.102315
0.102511
0.101934
0.103083
0.100439
0.100736
0.098546
0.0988953
0.102416
0.100983
0.102221
0.100843
0.1016
0.101813
0.101609
0.101807
0.102011
0.102693
0.103012
0.103096
0.102795
0.103465
0.10928
0.105126
0.118769
0.112465
0.123705
0.137671
0.132482
0.149003
0.186391
0.235117
0.167934
0.200852
0.291635
0.634603
3.16024
2.39158
3.23232
1.46477
3.14021
5.22075
6.02643
9.5449
9.41738
8.34017
9.47915
8.52944
9.66716
8.84831
0.118735
0.195616
4.60848
1.7177
2.76461
0.28525
0.752134
6.18861
6.87954
5.79505
5.20491
6.58346
6.13344
6.62711
4.77332
4.68331
4.68901
5.27867
5.18843
4.42669
4.66446
4.68001
4.42975
4.85226
4.99535
4.53545
4.47185
4.07621
4.01875
3.53977
3.60941
3.8324
2.86452
2.87748
2.57342
2.58362
3.31436
4.85833
4.73306
3.6139
4.18
4.02272
0.105151
0.0928458
0.096424
0.0817879
0.0827022
0.0843176
0.0865967
0.0892393
0.0826025
0.0829246
0.0837887
0.0838495
0.0852595
0.0851766
0.0966906
0.0972924
0.0948326
0.0956538
0.0928281
0.0938449
0.0907285
0.0920256
0.0870418
0.086691
0.0887901
0.0901213
0.0883471
0.102436
0.101959
0.10172
0.102488
0.102298
0.100005
0.100502
0.100096
0.10115
0.0982451
0.0987095
0.0964144
0.0969366
0.102126
0.102778
0.102457
0.104146
0.10358
0.103978
0.104322
0.103831
0.104638
0.10574
0.104368
0.104615
0.104146
0.112445
0.107894
0.108364
0.126963
0.117306
0.133935
0.156721
0.151205
0.177471
0.208737
0.422283
0.204747
0.275063
0.614917
1.98512
6.16308
6.89819
6.06258
7.30917
3.95704
6.79805
8.47456
9.42169
10.4167
10.1898
10.2427
0.116253
0.14593
0.200934
2.92352
4.9078
1.11641
2.17689
0.444387
5.46925
6.40791
5.35445
4.77203
5.8837
5.50213
6.33771
6.47714
6.0585
5.81052
4.21264
4.3655
4.39337
4.28829
3.9438
4.01381
3.92846
3.81743
3.96293
3.98698
3.62787
3.60147
3.11153
3.19171
2.53064
2.64742
2.09498
2.14644
1.90781
1.82293
3.29189
1.83746
2.80773
4.9408
0.0960354
0.101896
0.0893548
0.0931084
0.0838999
0.0852531
0.0871881
0.0845426
0.0849128
0.0854589
0.0855411
0.0866519
0.0866526
0.0947541
0.0953831
0.0931136
0.0938997
0.0913907
0.0922768
0.08976
0.0908069
0.0882041
0.0893011
0.0879221
0.10093
0.100875
0.100873
0.100672
0.0982255
0.0990551
0.098776
0.100148
0.0965682
0.0972838
0.0949501
0.0956691
0.102735
0.102123
0.104913
0.103949
0.109265
0.107569
0.110326
0.109464
0.106664
0.107689
0.110605
0.108403
0.106325
0.112142
0.107604
0.107722
0.121206
0.120616
0.139317
0.13718
0.174932
0.171519
0.232779
0.197776
0.317568
0.726548
0.261736
0.399911
1.72458
4.21679
6.44788
9.49185
9.56996
9.58256
9.76817
10.7101
10.6688
10.9649
0.71
0.105875
0.109934
0.137718
0.181629
0.331777
3.99348
1.61564
2.42636
5.61024
4.40937
4.3739
4.83353
5.62519
6.04329
4.82456
5.30255
6.14277
6.08714
5.61298
5.18766
3.78876
3.97596
3.62135
3.6396
3.52902
3.54845
3.41325
2.95362
3.22987
3.19763
2.44863
2.63794
1.98454
2.15576
1.63659
1.75711
1.49814
1.47357
0.0939239
0.0973961
0.0864611
0.0881816
0.0909757
0.0863007
0.0877622
0.0870141
0.0874326
0.0878744
0.0879426
0.093334
0.0942507
0.0916772
0.0929247
0.0903374
0.0914924
0.0890373
0.0902301
0.0890406
0.101338
0.0999624
0.100114
0.100505
0.0973036
0.0981383
0.0998359
0.098254
0.0957119
0.0966618
0.0943774
0.0951853
0.105275
0.104024
0.104053
0.107984
0.106117
0.114915
0.114255
0.113485
0.115834
0.122418
0.119664
0.120126
0.117332
0.116248
0.11235
0.110088
0.12013
0.116743
0.123324
0.147176
0.136951
0.216504
0.217154
0.170493
0.202758
0.311704
0.314427
1.00354
2.03289
0.893226
3.81019
5.77914
7.69182
10.4288
11.7987
11.5331
11.4766
1.49633
2.00933
0.0999899
0.539336
1.02697
0.107914
0.112012
0.119197
0.153658
0.196123
0.316503
3.90107
3.15448
5.57897
5.13491
3.9108
4.27558
5.87289
5.97448
4.28942
4.80377
5.75766
5.58934
4.93945
3.37367
3.55624
2.95519
3.10185
3.11387
2.9644
2.5239
2.65801
2.09081
2.27476
1.75617
1.89739
1.43176
1.60798
0.0966074
0.0890777
0.0922333
0.094383
0.0947046
0.0884558
0.0900399
0.0886777
0.0895394
0.0893463
0.0896051
0.0927245
0.0938909
0.0916056
0.0925776
0.0904045
0.0914576
0.0903344
0.0943908
0.100275
0.100002
0.101444
0.0992536
0.0981084
0.0970251
0.1017
0.0971246
0.0962066
0.0961253
0.105105
0.103394
0.106927
0.10955
0.109695
0.114793
0.113567
0.12317
0.125327
0.128374
0.127291