/*--------------------------------*- C++ -*----------------------------------*\
  =========                 |
  \\      /  F ield         | OpenFOAM: The Open Source CFD Toolbox
   \\    /   O peration     | Website:  https://openfoam.org
    \\  /    A nd           | Version:  8
     \\/     M anipulation  |
\*---------------------------------------------------------------------------*/
FoamFile
{
    version     2.0;
    format      ascii;
    class       volScalarField;
    location    "10000";
    object      p;
}
// * * * * * * * * * * * * * * * * * * * * * * * * * * * * * * * * * * * * * //

dimensions      [0 2 -2 0 0 0 0];

internalField   nonuniform List<scalar> 
4109
(
-0.00552569
-0.0177853
-0.00879472
-0.0287612
-0.0299019
-0.0185349
-0.0287137
-0.0146655
-0.0392322
-0.0397013
-0.0390227
-0.0429674
-0.00912987
-0.0228966
-0.0317834
-0.0463744
-0.0507361
-0.0467464
-0.0451164
-0.0419988
-0.00271987
-0.0324541
-0.0327696
-0.0538
-0.0546437
-0.0622765
-0.00303786
-0.00825354
-0.00559291
-0.0520839
-0.045617
-0.0470737
-0.0299939
-0.0869046
-0.061853
-0.0572755
-0.0622792
-0.0762934
-0.0165257
-0.00504047
-0.000179502
-0.0132379
0.000369606
-0.0561606
-0.0518691
0.0902565
-0.0558644
-0.0471486
-0.0551006
-0.0764542
-0.0683476
-0.0659184
-0.0717156
-0.088487
-0.0239573
-0.0109579
-0.00519456
0.0150105
-0.00957993
-0.0210132
-0.0678254
0.0650805
-0.0617061
-0.0562668
-0.052384
-0.0337322
-0.0585367
-0.0520055
-0.0577899
-0.0537258
-0.105414
-0.0804827
-0.125726
-0.125604
-0.127186
-0.0299466
-0.0327438
-0.0231422
-0.0123223
-0.0206133
-0.0117985
-0.0150718
-0.0160027
-0.0261677
0.0156344
-0.206773
0.123734
-0.236288
-0.00806485
-0.0812758
-0.0713066
-0.0615896
-0.0557947
-0.0534253
-0.0541261
0.0316244
-0.0531065
-0.0620728
-0.125483
-0.108882
-0.0979331
-0.139533
-0.137423
-0.145646
-0.151144
-0.0344203
-0.0374097
-0.0398958
-0.0230501
-0.00477319
0.0639417
-0.0153717
-0.01562
-0.0236572
-0.0302106
-0.578979
0.112121
0.0118654
-0.00552057
-0.30973
-0.120351
0.261544
-0.0883534
-0.0778323
-0.0696309
-0.0563414
-0.0551359
-0.0465283
-0.0744529
-0.0633383
-0.057019
-0.119957
-0.111703
-0.148662
-0.133547
-0.178181
-0.166574
-0.0415842
-0.0475519
-0.0504071
-0.0340104
0.00853314
0.0595789
-0.0129581
-0.024309
-0.0271573
-0.034527
0.0879745
0.0820159
-0.215358
-0.100515
-0.137525
0.0954448
-0.0863063
-0.0842293
-0.0757829
-0.0602054
-0.0487096
-0.0438274
-0.0397036
-0.0061031
-0.0286972
-0.10905
-0.100066
-0.148143
-0.123474
-0.166362
-0.18152
-0.214798
-0.0519681
-0.0580884
-0.0627326
-0.0508992
0.00797197
0.0295649
-0.0198832
-0.0237479
-0.0259053
-0.0427731
0.01919
-0.158059
0.0161758
-0.0697282
-0.0838369
-0.0218431
-0.0804209
-0.0853662
-0.0724402
-0.0459802
-0.046152
-0.0282175
-0.0139123
-0.0107766
-0.0931424
-0.100554
-0.138661
-0.112061
-0.157517
-0.185376
-0.216393
-0.256852
-0.0662891
-0.0724667
-0.0756437
-0.0670122
-0.0157341
0.00398121
-0.0100923
-0.0119405
-0.0241688
-0.056777
-0.0928384
-0.103658
-0.0847221
-0.0154763
-0.0943663
-0.0462673
-0.0769242
-0.078322
-0.0945998
-0.0488306
0.0960176
0.066723
-0.080886
-0.0860715
-0.127786
-0.0968505
-0.147418
-0.1789
-0.215674
-0.256419
-0.302676
-0.082433
-0.0866308
-0.0872469
-0.0800627
-0.00853298
0.0294177
0.00992498
0.013225
-0.0989349
-0.0381448
-0.0735747
-0.0638682
-0.0630801
0.0545237
-0.138857
-0.208949
-0.0525868
-0.0851635
-0.0605315
-0.0901957
0.0603811
0.0674131
-0.0634473
-0.0656706
-0.111739
-0.0768445
-0.131143
-0.169939
-0.206603
-0.249159
-0.298433
-0.349609
-0.104189
-0.0950427
-0.0917931
-0.116269
0.0209765
0.101309
-0.0172973
-0.113174
-0.0906197
-0.0616249
-0.175214
-0.129485
-0.23125
0.0634237
-0.197118
0.0100992
1.07813
-0.056673
-0.0104111
-0.337651
-0.0965811
-0.0537614
-0.0292528
-0.0864207
-0.0444925
-0.109018
-0.153137
-0.196185
-0.237445
-0.285901
-0.333439
-0.370398
-0.383061
-0.113516
-0.116784
-0.108165
-0.134045
-0.130459
0.019804
0.100876
-0.0553853
-0.107429
-0.0841797
-0.0650628
-0.222336
-0.0284169
-0.0484417
0.402639
0.0500933
1.08401
1.12376
1.13629
1.02867
1.02892
0.9705
-0.661722
-0.24925
-0.148248
-0.112638
0.0145429
-0.0465871
-0.0389341
-0.0807565
-0.132178
-0.178204
-0.371168
-0.22621
-0.272025
-0.322447
-0.394563
-0.400788
-0.411591
-0.386521
-0.136857
-0.136384
-0.153333
-0.148374
-0.12503
-0.0256111
-0.0109113
-0.0909378
-0.103887
0.335379
0.118108
1.01256
-0.105042
1.19988
1.16361
1.1697
1.0778
1.19673
1.2187
-0.314776
-0.362347
-0.329399
0.94672
0.922049
0.993105
0.909701
1.01663
0.109372
0.16456
0.160871
0.0233271
-0.0275513
-0.399228
-0.104888
-0.109159
-0.155312
-0.204947
-0.360134
-0.26102
-0.310947
-0.437762
-0.41911
-0.424722
-0.43765
-0.427313
-0.43795
-0.166432
-0.159361
-0.174227
-0.165191
-0.141978
-0.122676
-0.0966735
-0.153455
-0.104096
0.778518
0.616145
1.24485
1.23212
1.15624
1.2771
1.30571
-0.247348
-0.192455
-0.194932
-0.4845
-0.319471
0.827196
0.812197
0.842613
0.942147
1.08289
-0.0893378
0.445983
0.435818
0.032231
-0.0790087
-0.394403
-0.420995
-0.114748
-0.131121
-0.173925
-0.234482
-0.354406
-0.302885
-0.473081
-0.451145
-0.484169
-0.474637
-0.518126
-0.597445
-0.197838
-0.185645
-0.120148
-0.203047
-0.178572
-0.158226
-0.138437
-0.223367
-0.108685
-0.0777739
-0.104796
-0.263086
1.20509
1.326
1.32308
1.2315
1.37117
1.40722
-0.797858
-0.0184682
0.187987
-0.08134
-0.0973737
0.629676
0.410334
-0.31364
-0.168699
0.716425
0.842847
0.987774
1.16515
-0.155463
0.024003
0.132123
-0.0274427
-0.101803
-0.401095
-0.445935
-0.129039
-0.144269
-0.191903
-0.269604
-0.354571
-0.528405
-0.491494
-0.552946
-0.553528
-0.655165
-0.867495
-0.231872
-0.244696
-0.215945
-0.123047
-0.134629
-0.174415
-0.19392
-0.150504
-0.245198
-0.215728
-0.521891
-0.25052
-0.239588
-0.0475256
1.25023
1.2337
1.16554
1.42907
1.42574
1.32479
1.4859
1.53936
-0.632199
-1.19533
0.0453432
0.200332
0.0721333
0.402804
0.584344
-0.0991484
0.0132946
0.711808
0.870693
1.07816
1.27831
-0.257097
-0.225596
-0.229264
-0.0576191
-0.0470688
-0.101542
-0.414462
-0.477221
-0.136765
-0.160901
-0.225899
-0.323468
-0.539993
-0.597724
-0.643852
-0.667019
-0.869583
-1.17167
-1.45113
-0.269801
-0.282376
-0.145786
-0.140712
-0.165205
-0.185284
-0.209469
-0.281758
-0.242486
-0.202734
-0.0787334
0.366404
1.32569
1.30237
1.23986
1.07011
1.16192
1.54992
1.55081
1.43842
1.59982
1.63102
-0.393957
-0.998004
-1.71281
0.550737
0.253605
0.353283
0.129773
0.184857
0.731286
0.967529
1.22463
1.41152
0.302617
-0.185628
-0.252173
-0.261224
-0.101221
-0.0214347
-0.0522449
-0.394253
-0.478093
-0.19877
-0.13546
-0.285962
-0.568175
-0.664029
-0.756278
-0.82996
-1.09996
-1.38841
-1.76809
-2.05812
-0.315266
-0.320719
-0.120819
-0.147882
-0.166033
-0.187196
-0.223567
-0.317901
-0.283285
-0.244832
-0.0486602
0.0239548
1.43193
0.968
1.3417
1.27486
1.1474
1.6765
1.68081
1.56815
1.72252
1.73624
1.70155
-0.110437
-2.17688
-0.695754
-1.36914
0.337177
0.548056
0.369695
0.825041
1.15499
1.38506
1.56227
0.0282267
-0.113716
-0.173905
-0.141498
-0.075113
0.0937315
0.0345608
-0.48162
-0.371781
-0.264577
-0.182756
-0.601867
-0.736978
-1.00281
-0.873086
-1.30771
-1.96732
-1.6266
-2.26245
-2.50007
-0.359496
-0.356442
-0.355648
-0.134687
-0.155788
-0.195291
-0.246829
-0.320958
-0.282243
-0.0871797
-0.0732819
1.55517
1.4318
0.823159
0.955881
1.3354
1.21942
1.04434
1.79483
1.78988
1.70895
1.84591
1.84024
1.81667
0.15923
-2.72915
-0.336223
-1.78281
-0.950595
0.495331
0.658601
0.394384
1.02795
1.33459
1.55794
1.73008
0.0200476
-0.0202821
-0.0982688
-0.101885
0.0295401
0.178458
-0.00219898
-0.511473
-0.35893
-0.26891
-0.680561
-0.836283
-1.16745
-1.00337
-1.55574
-1.96385
-2.32631
-2.73537
-3.09732
-0.400822
-0.393439
-0.395965
-0.3647
-0.142034
-0.163153
-0.218334
-0.280968
-0.323078
-0.0767557
-0.0420842
1.67775
1.58294
1.51713
1.41461
0.634737
0.815375
0.926464
1.29247
1.15715
1.00567
0.422238
1.88458
1.87231
1.79094
1.85989
1.95491
1.91883
1.9547
0.0572512
-2.27517
-0.508165
-1.31448
0.65712
0.862888
0.429416
1.91294
1.22049
1.53128
1.75988
0.0455925
-0.0418562
-0.0820023
-0.0520243
-0.16387
0.0327625
0.0556539
-0.533825
-0.345803
-0.896359
-0.758481
-1.31852
-1.66383
-1.15534
-2.21197
-2.84311
-3.36359
-0.416134
-0.449716
-0.444606
-0.415402
-0.373072
-0.156792
-0.182057
-0.254282
-0.324302
-0.0770579
-0.0296198
-0.39645
-0.33942
1.6952
1.61908
1.50286
1.37962
0.643457
0.811432
0.945438
1.23302
1.08891
0.456421
0.208164
0.00852328
-0.159764
-0.27422
1.91069
1.94415
1.87876
1.80044
2.09574
2.00671
2.03677
2.00008
-0.0355297
-1.73941
-0.792528
1.04828
0.784007
0.642271
0.382558
2.20324
1.98371
1.4466
1.78038
0.0311297
-0.110733
0.0175514
0.498235
-0.351406
-0.0492673
-0.725065
-0.49376
-1.56098
-1.15115
-1.92962
-2.78937
-3.50486
-0.464133
-0.490451
-0.474002
-0.433661
-0.37884
-0.177051
-0.220478
-0.303496
-0.0573647
-0.0712613
-0.333842
-0.440291
-0.370941
1.71409
1.60613
1.47793
1.32235
0.661741
0.834454
1.00275
1.15684
0.497129
0.254809
0.334125
-0.330699
0.0553697
-0.244243
-0.113752
1.89926
1.96493
1.81813
2.03622
2.25055
2.12713
2.08121
2.38183
-0.247169
-1.1401
1.2813
1.15735
1.02128
0.999861
0.320031
2.07159
2.34373
1.7811
0.219212
0.148046
0.9014
0.566205
-0.251417
-0.391286
-0.877454
-0.565323
-1.67143
-2.56349
-3.49931
-0.519008
-0.532505
-0.505363
-0.45144
-0.368822
-0.22882
-0.280311
-0.093541
-0.106746
-0.410876
-0.520055
1.83139
1.7188
1.58649
1.42854
1.23836
0.691783
0.884601
1.06016
0.535204
0.378911
0.189424
-0.415971
-0.367126
0.0386823
-0.277896
-0.137232
1.92423
2.00417
1.94487
2.12193
2.55429
2.3994
2.23118
2.53107
1.94688
-0.483688
1.71695
1.59083
1.43889
0.940448
0.234395
2.36234
2.20653
2.52626
0.198215
0.635979
2.16075
0.458318
0.476326
-1.23443
-0.769022
-2.15886
-3.33797
-0.586933
-0.58158
-0.544614
-0.462234
-0.297972
-0.362414
-0.155426
-0.149009
-0.521784
-0.627484
1.8365
1.71229
1.55035
1.33489
1.13113
0.739171
0.935502
0.574043
0.382227
0.187975
-0.503414
-0.441048
0.000296675
-0.334052
-0.182909
2.08378
2.02873
2.28308
2.93896
2.71645
2.7342
2.5536
2.00295
1.88105
1.55942
0.983621
2.284
2.72104
3.03332
0.121139
0.84929
-0.129583
-0.19847
-1.67498
-0.963701
-2.98836
-0.65556
-0.645678
-0.590299
-0.295425
-0.454011
-0.346241
-0.647997
-0.720236
1.69425
1.84754
1.45845
1.20408
0.998569
0.783563
0.603367
0.395255
0.171296
-0.626159
-0.554569
-0.0554604
-0.432056
-0.262057
2.13778
2.23397
2.52651
3.2489
2.98237
2.83352
3.49527
2.04468
2.12945
1.73273
2.66913
3.11737
3.54226
-0.208092
0.0810884
0.121347
-0.195683
-2.39661
-1.35419
-0.746005
-0.717084
-0.486896
-0.603183
-0.620881
-0.760381
-0.842675
1.63036
1.82904
1.32173
1.07384
0.837365
0.638568
0.401981
0.14129
-0.753557
-0.684855
-0.120066
-0.55038
-0.357073
2.25321
2.42314
2.80931
3.51112
3.17329
3.9238
2.02954
2.44925
3.13037
3.71766
4.23684
-32.2648
-0.239627
0.284266
0.3363
-0.404793
-31.5189
-0.852404
-0.764671
-0.88872
-1.00572
-0.709461
-0.911944
-0.993341
1.75145
1.5123
1.19672
0.910359
0.689475
0.412451
0.106114
-0.924008
-0.853365
-0.198214
-0.699422
-0.47475
2.65421
2.34258
3.29016
3.97104
4.59892
2.52078
2.07566
-34.3523
-32.2651
-0.148037
0.149127
0.193333
-29.4859
-31.3937
-31.7485
-0.989041
-1.0399
-1.1724
-1.19743
-0.824891
-1.11752
-1.19037
1.71657
1.41374
1.03316
0.779324
0.42999
0.0516796
-1.17479
-1.09383
-0.311303
-0.638362
-0.90577
3.09208
3.90919
4.73342
2.93846
2.51731
2.07914
-35.3385
-34.4217
-32.266
-0.504021
-28.8949
-31.1343
-33.9286
-30.9595
-1.32355
-1.49495
-1.54121
-1.34405
-1.42985
-1.46544
1.64137
1.24326
0.94134
0.4701
-0.00751755
-1.56694
-1.43705
-0.448903
-0.842981
-1.17649
3.75833
4.71494
2.85154
3.50994
2.52588
2.06908
-36.1757
-35.4854
-34.4557
-32.2501
-35.0412
-27.4368
-28.6533
-30.8818
-34.0642
-30.7473
-1.76568
-1.98057
-2.32024
-1.92769
-1.76912
-1.93902
1.51364
1.01734
0.454214
-0.102727
-2.15627
-1.86627
-0.628134
-1.10118
-1.51598
4.54757
3.21388
4.20034
2.76773
2.20235
-36.1856
-35.6102
-34.4722
-32.2297
-33.8681
-35.2818
-27.5702
-27.4383
-28.525
-30.6547
-33.9776
-30.7323
-2.30476
-2.89547
-2.438
-2.56346
-2.69966
1.60743
1.00509
0.37724
-0.25835
-2.53267
-2.25112
-0.862437
-1.40862
-1.88447
3.7243
3.13598
2.45534
-38.8088
-36.0603
-35.6969
-34.4822
-32.2067
-33.9368
-35.445
-25.4521
-27.6082
-27.4077
-28.433
-30.4476
-33.8519
-30.6518
-3.21613
-3.36434
-3.41112
-3.36234
1.7458
1.00961
0.259525
-0.472596
-3.13206
-2.76571
-1.15583
-1.77288
-2.31498
-41.6612
-38.9168
-35.9434
-35.7586
-34.4937
-32.1841
-34.0725
-35.6047
-25.0132
-25.4711
-27.6377
-27.3598
-28.361
-30.2624
-33.7074
-30.4833
-46.3566
-41.8575
-38.9899
-35.856
-35.8039
-34.5077
-32.1611
-34.1868
-35.7771
-21.0322
-25.1932
-25.4865
-27.6408
-27.3332
-28.2893
-30.1435
-33.5589
-30.2812
-49.0538
-46.2016
-41.97
-39.0506
-35.7972
-35.8393
-34.524
-34.273
-35.9665
-25.3541
-20.8344
-25.3255
-25.4859
-27.625
-27.3226
-28.2127
-33.4393
-94.1992
-48.618
-46.1773
-42.0502
-39.0802
-35.7589
-35.8622
-34.3233
-36.1411
-20.0995
-26.1353
-20.8431
-25.3895
-25.4845
-27.6
-27.3285
-33.3859
-30.5454
-103.5
-47.5061
-46.2373
-42.111
-39.0858
-35.7393
-34.3241
-21.6877
-20.2191
-26.96
-20.8723
-25.4138
-25.4851
-27.5749
-27.3354
-44.5261
-30.909
-112.461
-46.2845
-46.3209
-42.1429
-39.0752
-34.2933
-20.946
-21.7545
-20.2885
-27.7462
-20.9072
-25.4157
-25.4919
-27.5654
27.5343
-52.1173
-30.5398
-120.556
-45.0499
-46.3955
-42.1506
-39.051
-20.8957
-20.9036
-21.8329
-20.3599
-28.475
-20.9519
-25.4092
-25.4999
35.0712
30.6561
-60.6032
-29.9495
-127.694
-43.8005
-46.4017
-42.1343
-20.475
-20.84
-20.8634
-21.888
-20.4458
-29.1812
-20.9807
-25.4183
47.3707
36.2099
33.807
-68.4844
-29.2351
-134.434
-42.6547
-46.3368
-20.4794
-20.4063
-20.7853
-20.8296
-21.9263
-20.5426
-29.8645
-20.9703
50.0508
48.2394
37.3981
36.1806
-75.6618
-28.3784
-141.488
-41.8855
-20.9048
-20.408
-20.3331
-20.7322
-20.804
-21.9544
-20.6372
-30.2903
49.9738
50.6061
49.1491
38.3959
38.212
-82.6955
-27.6079
-146.792
-20.9509
-20.8468
-20.333
-20.2653
-20.682
-20.7849
-21.9761
-20.7059
47.5846
50.5705
51.2218
49.8839
39.3472
40.1626
-90.4816
-27.5196
-21.6873
-20.9054
-20.7908
-20.2639
-20.2053
-20.6369
-20.7693
-21.9907
34.781
48.3171
51.1656
51.7801
50.4771
40.3214
42.1348
-97.018
-20.0307
-21.7583
-20.8639
-20.7361
-20.2029
-20.1536
-20.6018
-20.7578
27.2697
35.8905
49.1829
51.7075
52.2682
50.9721
41.2974
43.6012
-25.3212
-20.1155
-21.8373
-20.8292
-20.6842
-20.1502
-20.1151
-20.5847
-44.2479
30.3241
37.0546
49.8948
52.1847
52.6977
51.3569
41.8959
-20.9838
-26.157
-20.1784
-21.8939
-20.8032
-20.637
-20.111
-20.0974
-30.3954
-51.9935
33.3986
38.0001
50.4722
52.606
53.054
51.5796
-24.8724
-20.7772
-26.9937
-20.2459
-21.9342
-20.784
-20.6
-20.0929
-94.0437
-30.993
-60.5066
35.6633
38.8845
50.9442
52.9547
53.2553
-25.3461
-25.0535
-20.779
-27.7794
-20.3264
-21.9649
-20.7683
-20.582
-48.9836
-103.72
-30.7082
-68.3311
37.5627
39.8272
51.3166
53.1518
-27.499
-25.3711
-25.1817
-20.8062
-28.506
-20.4159
-21.9891
-20.7567
-45.7039
-48.4491
-112.74
-30.1589
-75.4077
39.3418
40.7772
51.529
-27.2305
-27.5249
-25.387
-25.2412
-20.8415
-29.2088
-20.5056
-22.0048
-41.5738
-45.5562
-47.2379
-120.847
-29.4808
-82.3701
41.0072
41.3845
-30.5485
-34.2785
-27.238
-27.555
-25.3881
-25.2629
-20.8856
-29.8785
-20.568
-38.2672
-41.7378
-45.5417
-45.9568
-128
-28.6564
-90.0278
42.2455
-28.1869
-30.4813
-34.3092
-27.2069
-27.5611
-25.3883
-25.2598
-20.9128
-30.2914
-33.8466
-38.3887
-41.8283
-45.6027
-44.6633
-134.734
-27.8887
-96.5407
-34.6182
-30.9784
-27.8689
-30.5523
-34.24
-27.1585
-27.5477
-25.3907
-25.2523
-20.9021
-33.7443
-38.4697
-41.8979
-45.6842
-43.363
-141.796
-27.7828
-34.976
-35.801
-31.7621
-30.7787
-27.751
-30.5079
-34.1584
-27.1318
-27.5247
-25.3976
-25.2594
-35.2409
-34.0741
-33.8624
-38.5347
-41.9492
-45.7508
-42.1563
-147.121
-35.1537
-35.8484
-31.7158
-30.5066
-27.6504
-30.3765
-34.0501
-27.1251
-27.5015
-25.4066
-35.3259
-34.1497
-33.9888
-38.5682
-41.9801
-45.7476
-41.3807
-35.3
-35.7411
-31.6815
-30.2656
-27.5757
-30.1887
-33.9328
-27.1294
-27.4919
-35.4437
-34.1575
-34.0847
-38.5796
-41.9888
-45.6722
-35.4563
-35.6249
-31.6531
-30.0523
-27.5268
-29.9808
-33.8416
-27.1352
-35.534
-34.1648
-34.1409
-38.5702
-41.9728
-35.6293
-35.5361
-31.6253
-29.8546
-27.4762
-33.8068
-35.5984
-34.1717
-34.1479
-38.5472
-35.7908
-35.478
-31.5961
-29.6841
-27.4103
-35.6456
-34.1826
-34.1188
-35.4413
-31.5625
-29.5733
-35.6825
-34.1982
-35.4229
-31.5392
-35.7074
-34.2149
-3.24588
-3.63076
-3.68277
-4.19677
-4.17459
-4.74418
-3.17536
-3.64225
-2.71868
-3.96212
-4.02908
-4.58254
-4.67169
-5.33574
-5.33728
-6.00508
-8.06808
-8.83658
-8.8984
-9.8151
-9.63713
-5.98527
-6.663
-4.71278
-5.33214
-3.56044
-4.09323
-2.60609
-3.01757
-2.13461
-10.5688
-10.2025
-4.15345
-4.34032
-4.93677
-5.04418
-5.65693
-5.87291
-6.63748
-6.66353
-7.42926
-7.37084
-8.08261
-8.83282
-9.61849
-9.60845
-10.4497
-10.6307
-11.6345
-11.5288
-6.60725
-7.32352
-7.29114
-8.08201
-8.01419
-8.80411
-9.29223
-5.21736
-5.84891
-3.91408
-4.47649
-2.8358
-3.26716
-1.94167
-2.27291
-1.46082
-8.674
-9.07602
-12.4997
-13.4219
-10.1384
-10.9281
-11.8955
-4.23764
-4.47183
-5.09512
-5.33616
-6.035
-6.14475
-6.88773
-7.18562
-8.01457
-8.09767
-8.894
-9.66635
-10.5086
-10.4649
-11.3051
-11.26
-12.2287
-12.3962
-13.0997
-13.4251
-14.5251
-14.0351
-14.9091
-5.69056
-6.47565
-6.5834
-7.26245
-7.45613
-4.27025
-4.89184
-3.01253
-3.50782
-2.01572
-2.36246
-0.702973
-1.18488
-1.44936
-7.12539
-7.89894
-7.64735
-8.8
-10.1679
-14.4858
-12.542
-13.9355
-11.4014
-12.5702
-4.15015
-4.49879
-5.16379
-5.45799
-6.18224
-6.48153
-7.21248
-7.41559
-8.22845
-8.50198
-9.18475
-9.66834
-11.2127
-10.8346
-12.238
-12.2534
-13.3221
-13.2481
-13.8861
-14.6734
-15.1384
-15.1986
-16.1152
-15.8288
-15.6714
-16.2353
-16.3608
-17.5618
-4.90707
-5.73063
-5.33329
-6.04826
0.142224
-0.340138
-3.35211
-4.08544
-2.02911
-2.50952
-0.516184
-1.08596
-1.35678
1.03106
0.585363
-5.67166
-6.4638
-6.31787
-18.7048
-17.6333
-19.3421
-7.67296
-8.98255
-10.2801
-11.4593
-13.7468
-14.8803
-16.5573
-15.8937
-12.7156
-13.8039
-3.91408
-4.33893
-5.05826
-5.45964
-6.21872
-6.55713
-7.31839
-7.64123
-8.73925
-8.41117
-9.62104
-9.81816
-10.7203
-11.2803
-12.8969
-12.3754
-13.8428
-13.961
-14.6458
-15.2243
-15.0922
-20.6741
-21.0841
-19.8245
-16.1999
-15.9704
-16.9607
-16.9214
-17.2806
-18.0893
-17.6741
-19.8152
-19.068
-29.4934
-30.2223
-29.8766
-32.5018
-31.3187
-30.8583
-31.0882
-30.7758
-3.67907
-4.26419
-3.7209
-4.40795
0.510512
-0.0600439
-2.11785
-2.69308
-0.254022
-0.941746
-1.26791
1.92355
1.54967
1.57424
1.06379
-3.95019
-4.83733
-7.67647
-4.49659
-6.02211
-29.1901
-27.6121
-23.557
-22.7979
-21.4134
-17.0134
-18.4121
-19.1838
-20.6404
-7.89702
-8.9991
-8.85259
-10.3854
-11.7215
-13.0265
-14.3319
-15.1541
-16.5302
-29.9028
-30.8708
-32.436
-30.7904
-32.2264
-33.8918
-32.7429
-31.8982
-33.1645
-32.9859
-3.39015
-4.00849
-4.81941
-5.31787
-6.14174
-6.56997
-7.48433
-7.77391
-8.57465
-8.85307
-10.2452
-9.77539
-11.0992
-11.2575
-12.2719
-12.846
-12.8838
-14.2252
-13.8145
-14.9884
-15.6974
-15.6461
-16.6714
-16.7532
-16.3875
-22.0332
-22.9563
-25.0853
-24.2157
-21.6894
-20.7717
-17.6978
-17.779
-18.3885
-18.6539
-20.6363
-19.4414
-19.116
-25.6766
-27.6706
-27.2289
-27.7822
-27.1628
-29.2518
-29.5023
-30.081
-32.182
-31.2033
-31.6293
-31.3438
-31.7511
-31.862
-32.4
-32.0802
-31.631
-31.7504
-2.04823
-2.55805
-1.84368
-2.5437
1.00966
0.317124
0.146491
-0.662669
-0.96857
2.76481
2.45265
2.58176
2.15464
2.2439
1.69477
-1.70568
-2.33228
-3.65041
-3.9821
-5.51614
-6.41307
-2.94635
-24.8106
-27.2642
-26.1764
-30.0214
-28.6885
-24.0927
-25.286
-23.465
-21.4947
-6.477
-21.2386
-17.4419
-19.8222
-18.7787
-7.55935
-8.53761
-10.0852
-10.5761
-12.1437
-12.5931
-14.3825
-15.374
-17.1313
-30.1227
-31.0013
-29.9899
-32.9846
-32.7028
-34.2816
-32.462
-32.3239
-31.5175
-32.0576
-33.2863
-32.9811
-2.72716
-3.37159
-2.13888
-2.19676
-4.32956
-5.03813
-6.00766
-6.48798
-7.49905
-8.03255
-9.11835
-9.23692
-10.5307
-11.3784
-10.2575
-12.0176
-12.6195
-13.5727
-14.0946
-14.9096
-13.5621
-14.1007
-15.5956
-15.6353
-15.6599
-16.476
-16.3507
-16.451
-16.4369
-17.1853
-17.2965
-18.0033
-18.3696
-22.6256
-23.6165
-24.6988
-24.0705
-22.2987
-21.6063
-19.3372
-19.6443
-21.4342
-20.4566
-20.3663
-25.5169
-25.1599
-25.5711
-28.3523
-27.2056
-29.0678
-28.8398
-30.5397
-27.6281
-30.0969
-30.3887
-31.8281
-31.4264
-31.073
-32.3261
-30.4024
-31.499
-0.446916
-0.25015
-0.65457
0.0266588
1.68482
0.926472
0.73498
0.287651
3.58247
3.34705
3.60379
3.24966
3.45463
2.96516
3.07634
2.41727
4.30783
4.1659
4.89194
4.91476
5.47968
5.33387
1.08565
-0.514573
-1.29944
-1.34169
-5.19532
-3.45035
-1.57556
-0.795303
-28.7033
-28.2712
-26.6535
-22.493
-25.7652
-24.2934
-4.90992
-6.66208
-8.43708
-22.7884
-18.6247
-21.2124
-19.983
-10.1921
-11.2515
-12.7705
-13.2749
-14.8993
-15.4481
-17.4561
-29.0439
-32.7866
-33.4223
-32.2912
-31.3098
-34.3233
-35.3255
-34.4928
-35.3089
-33.15
-33.1281
-33.7084
-34.4415
-34.056
-1.31339
-1.82504
-4.31698
-4.37168
-3.13019
-3.73062
-5.69146
-6.24906
-8.05081
-8.09703
-9.19473
-9.67044
-11.2754
-11.228
-12.1143
-12.7025
-13.669
-13.9917
-14.9166
-14.7595
-15.5106
-16.113
-17.0367
-16.691
-17.319
-16.9806
-17.6933
-17.7275
-17.9606
-17.8899
-18.68
-19.0217
-19.6714
-20.0499
-24.2192
-22.9581
-23.8439
-23.2658
-22.2576
-20.6511
-21.6446
-21.0746
-21.4849
-26.3885
-24.9484
-27.4621
-25.9353
-27.9535
-28.1801
-27.4722
-31.0978
-28.9261
-32.9834
-31.101
5.53864
5.80877
0.937547
1.14207
2.43956
1.68929
1.82159
2.12574
2.42191
4.5085
4.21144
4.51575
4.12586
4.39823
3.88201
4.12923
3.4583
5.35365
5.21138
6.02205
6.03301
6.63207
6.44333
2.96241
2.53496
2.46643
0.681855
-3.10252
-1.53233
0.14449
1.39336
-24.7851
-26.8097
-28.0089
-3.18112
-5.2155
-7.08275
-9.13852
-11.0024
-22.6425
-24.4847
-18.9065
-21.7456
-13.0303
-14.2432
-16.4308
-16.8462
-19.09
-28.8951
-31.1343
-30.6944
-33.8539
-31.3618
-32.9548
-34.7694
-34.769
-35.4695
-33.5293
-34.5968
-34.8238
-35.2308
-34.0465
-1.11878
-3.10771
-2.28278
-1.92894
-2.37132
-4.07381
-4.97335
-5.35541
-4.07644
-5.21522
-7.91604
-8.15889
-9.57597
-9.05065
-11.9396
-12.1849
-14.3294
-13.2978
-13.278
-14.0698
-14.2861
-15.3113
-15.6207
-16.3273
-16.7445
-17.7603
-18.3192
-18.2204
-17.9997
-18.5865
-18.7006
-18.2656
-19.5404
-19.4506
-19.4756
-19.9387
-21.3649
-24.7536
-24.3197
-23.3044
-22.114
-21.53
-22.952
-22.6221
-22.0838
-25.5905
-25.4589
-27.4208
-26.552
-27.7076
-27.8246
-27.9488
-27.6448
5.54598
5.92714
6.58896
6.93021
3.64169
3.01881
3.33157
4.38181
4.28335
5.67193
5.39448
5.84895
5.26867
5.54038
4.88508
4.9927
6.48972
6.59672
7.34007
7.29571
8.01685
7.68693
6.15552
4.91565
4.2367
3.41039
4.6544
7.65333
-1.3843
0.278864
2.4197
4.0971
-1.23008
-28.6329
-26.4844
-2.97494
-5.2683
-7.45724
-9.78699
-12.8662
-14.9738
-14.4772
-21.3761
-26.0304
-23.6715
-17.8401
-18.4125
-21.0287
-32.076
-30.0405
-35.1524
-33.6909
-35.7709
-35.8093
-36.2897
-35.4078
-35.5229
-34.1931
-2.96197
-2.40506
-2.71759
-3.80321
-3.92585
-3.30232
-4.04326
-5.79643
-6.84307
-8.029
-6.40478
-8.10709
-8.09588
-8.95655
-12.9798
-12.22
-13.7297
-13.8966
-16.788
-15.0265
-14.9025
-14.1799
-16.161
-17.611
-17.1411
-18.3706
-18.5556
-18.3426
-19.1783
-18.3719
-19.5183
-20.0208
-20.0726
-18.8874
-20.6723
-20.0734
-20.5786
-21.7557
-22.7892
-25.816
-25.0825
-21.876
-21.9964
-22.9008
-22.4478
-26.0443
-25.8583
-27.1043
-26.2771
-27.6019
-27.024
-3.52461
-3.58802
5.33694
5.84531
6.47931
6.94261
7.66375
8.21515
5.9368
5.79182
6.73577
7.81356
8.42326
7.10387
6.82607
7.31727
6.60165
6.98226
8.0887
8.08857
8.91689
8.82802
9.67025
9.11298
9.63753
7.68163
6.26801
6.63223
10.3778
9.55675
1.01548
2.95392
5.67371
7.28262
1.34197
-0.673877
-2.81146
-32.5139
-28.7714
-5.77805
-8.82381
-12.1889
-14.4488
-18.3937
-19.8282
-23.5837
-27.3933
-30.452
-25.1541
-37.7245
-35.2126
-38.5727
-38.8509
-39.2725
-38.1082
-39.157
-38.3113
-4.27597
-4.00994
-5.15751
-5.22635
-6.07556
-5.42189
-6.28775
-7.7181
-8.6061
-9.71078
-8.44412
-9.70391
-13.716
-11.015
-12.1968
-13.133
-14.1218
-14.0968
-15.2849
-17.569
-16.067
-17.4426
-15.9046
-18.7199
-18.0557
-20.3243
-18.7625
-19.6466
-18.9584
-19.1356
-19.0222
-20.0185
-20.416
-20.3669
-20.531
-20.1746
-21.3431
-21.1701
-21.8743
-22.1661
-23.4164
-22.335
-24.436
-23.5143
-23.6681
-25.2538
-24.9842
-25.6187
-25.096
-3.96969
-4.14329
-4.96287
-4.97745
4.89104
5.49138
6.07466
6.64266
7.2959
7.96292
9.50867
8.81023
4.26662
4.88396
10.5927
10.2088
8.37195
8.90386
8.89816
8.56642
9.15001
10.082
9.89422
10.8811
10.6277
11.2734
10.4375
12.0967
12.5922
13.4432
12.5795
9.35112
10.3838
6.28137
4.27691
10.6659
9.09466
5.24991
2.71956
-1.24494
3.60353
-4.17363
-6.89623
-37.6649
-33.9458
-11.2147
-15.719
-22.5876
-24.4364
-33.607
-38.5544
-32.8651
-40.0557
-40.1602
-41.7193
-41.1778
-42.4645
-41.1601
-5.82963
-6.27293
-6.9399
-7.10022
-8.14584
-7.57017
-9.01241
-9.86175
-10.8747
-11.9172
-10.886
-11.9219
-14.8414
-13.8835
-13.1862
-14.1679
-17.7726
-14.9722
-15.3149
-16.9482
-16.4473
-18.2114
-17.5177
-17.8128
-17.8392
-19.3173
-18.8143
-19.9262
-20.117
-19.7135
-19.7867
-19.5007
-19.4638
-20.4534
-20.6236
-20.6928
-21.0348
-20.462
-20.7017
-20.3003
-21.8395
-21.3495
-23.6237
-22.4725
-24.8207
-23.5629
-21.894
-25.1022
-24.6012
-4.25649
-4.48748
-5.19011
-5.41178
-6.17928
-6.38949
5.38569
6.07012
6.62476
7.36392
10.8194
9.01124
9.97643
8.13392
3.53248
4.12771
4.52503
5.22391
2.72016
3.31088
1.8601
2.43021
12.5973
11.2472
10.8666
11.8516
11.1175
11.9154
12.3877
12.0626
13.2517
12.4735
12.78
12.0873
11.9025
14.0743
15.0235
15.265
16.546
15.9715
13.745
13.0907
10.0425
8.12258
14.4239
13.0938
8.91765
6.52366
-0.33852
-5.23705
6.46821
2.59481
-8.622
-14.0399
-45.4932
-42.8896
-23.268
-31.7553
-40.8874
-46.3096
-39.8154
-46.5122
-44.4701
-46.5783
-46.2464
-7.34988
-8.14239
-10.2956
-10.369
-9.39442
-9.40584
-11.1455
-12.1635
-13.0791
-13.9294
-13.4558
-14.1668
-16.0184
-15.006
-14.7025
-15.2935
-18.0292
-17.8744
-16.9314
-18.3759
-16.9291
-17.4201
-18.6677
-18.9725
-18.2249
-19.4562
-19.4389
-20.6805
-20.2697
-20.2719
-20.1973
-20.1402
-20.7639
-20.7287
-20.5583
-20.7428
-20.6373
-20.4165
-21.2072
-20.5916
-21.2826
-23.6548
-21.474
-21.8077
-25.1751
-21.7163
-7.75917
-4.21381
-4.5096
-5.23151
-5.57651
-6.32611
-6.63555
-7.32635
-4.18829
-4.47528
-3.99068
-4.35274
-3.66251
-4.06633
0.9992
1.49231
0.142342
0.564648
-0.693525
-0.319949
-1.44517
-1.16717
-3.25859
-3.70183
-2.72525
-3.19149
-2.12813
-1.9224
-2.60439
5.69238
6.54651
7.17846
8.15373
10.0918
11.0196
8.97839
3.60315
4.29664
4.67355
5.43417
2.59118
3.2499
1.52335
2.12794
10.8862
13.5849
14.9985
13.7235
14.2236
13.8431
15.3961
14.7669
15.8244
14.9626
13.1421
13.3447
11.869
16.4373
16.8015
17.1483
18.4923
18.3645
20.0894
20.0901
17.7337
17.2833
14.404
12.3408
18.9293
17.5935
12.6526
9.80414
-10.5543
-1.33884
-8.99276
8.38515
2.89169
-20.5199
-24.8582
-47.9696
-50.3376
-35.649
-66.0239
-55.9173
-54.365
-47.0297
-8.80465
-9.57306
-11.7071
-11.8949
-12.0003
-10.7178
-11.4614
-13.5253
-13.9987
-15.106
-15.3917
-15.009
-15.9805
-15.6782
-16.3766
-17.1862
-16.2463
-19.4229
-18.8741
-17.7271
-18.0845
-18.8928
-18.542
-19.5075
-19.4554
-20.3976
-20.4059
-20.574
-20.4708
-20.9516
-20.9361
-20.8541
-21.1641
-20.8934
-20.9762
-20.9467
-20.6488
-21.0693
-20.6537
-20.4975
-24.7957
-20.7208
-9.10721
-7.58403
-8.393
-5.12771
-5.53722
-6.25119
-6.64345
-7.31374
-4.90187
-5.29945
-4.61789
-5.06322
-4.20669
-4.68124
0.49023
1.00588
-0.48164
-0.0617528
-1.43844
-1.06222
-2.23585
-2.01422
-3.6591
-4.17188
-3.00606
-2.78904
-3.55089
5.86951
6.89503
7.45322
8.72942
9.54698
3.47654
4.25565
4.52083
5.42518
2.19433
2.91442
0.880318
1.54909
8.93774
11.2183
9.77529
17.2389
16.9909
16.443
18.2498
17.4588
18.0426
15.9734
14.3296
14.0974
12.2725
20.2417
18.9362
19.0988
21.95
21.8839
23.9664
24.0698
22.1816
22.3316
19.1419
17.1105
24.1614
22.657
17.4518
13.8706
-13.2008
-21.7787
-2.24966
-12.1023
11.1013
3.37679
-28.9577
-30.7689
-40.5902
-88.0961
-80.3689
-10.0493
-10.6886
-11.6254
-12.7158
-13.4406
-13.2072
-13.2447
-12.6658
-16.0334
-16.6181
-17.2018
-17.2176
-16.4484
-17.7422
-17.0524
-17.8942
-18.2166
-18.5565
-18.2506
-18.0682
-19.7489
-19.4171
-18.8845
-19.0889
-19.7538
-19.4581
-20.1562
-20.4341
-20.6424
-20.6633
-21.1703
-21.0041
-21.0396
-21.1585
-21.3942
-21.352
-21.4024
-21.3282
-20.0126
-21.5894
-20.8314
-30.2169
-9.04457
-9.89533
-7.73254
-8.62656
-5.97455
-6.44378
-7.29537
-5.77222
-6.28692
-5.31328
-5.89459
-4.68179
-5.26813
-0.256835
0.22367
-1.33293
-0.91393
-2.38879
-2.01814
-3.21919
-3.03605
-4.02489
-3.85171
-4.61145
5.77097
7.01203
7.64156
7.18979
3.00305
3.87764
4.05547
5.0983
1.49541
2.27889
0.00993925
0.794517
9.28729
7.84058
11.6019
10.0801
17.4609
17.4246
21.0669
20.3187
19.6557
18.73
21.3936
21.0738
12.416
16.8182
15.2395
14.1312
23.3776
23.2563
25.8113
25.5317
27.0574
27.9213
26.529
28.0151
24.0451
22.3469
28.7696
27.5439
23.6857
19.7728
21.5732
-18.8558
-28.6671
14.0529
-6.01277
-17.6852
-32.4294
-28.5673
-13.8438
-10.2153
-11.0372
-11.7308
-12.7174
-13.5966
-15.8988
-14.4706
-15.3554
-17.6882
-17.2394
-18.7454
-18.8112
-17.2565
-18.572
-19.0894
-19.2028
-19.3565
-18.9373
-19.2442
-19.4969
-19.394
-19.3511
-20.2227
-20.0236
-19.7605
-19.8391
-20.159
-21.0469
-20.5757
-20.7631
-21.093
-21.1078
-21.2588
-21.2514
-21.0583
-21.1736
-21.8582
-21.1548
-9.09782
-9.81628
-7.19863
-7.74012
-8.6382
-6.59881
-7.23832
-5.91435
-6.57183
-5.18188
-5.85408
-1.2034
-0.72504
-2.43308
-1.9862
-3.54262
-3.23912
-4.36924
-4.22756
-5.05657
7.10488
5.32778
6.21109
5.82711
2.31201
3.19712
4.16778
3.38226
0.712667
1.52914
-0.998552
-0.213761
9.0677
7.08378
5.74608
11.391
9.63991
17.9159
20.6902
19.5939
20.4599
24.9507
23.5945
24.7894
22.6732
22.9489
14.9554
12.4512
17.6635
16.3103
19.2569
27.6158
27.1459
30.8653
33.316
30.4058
31.177
31.7833
32.4789
33.4589
28.7873
29.7446
29.9146
25.5526
27.1664
25.8579
21.4421
-21.5789
-39.7415
-36.1987
-15.8406
-10.2798
-14.3901
-14.8857
-11.3051
-11.5932
-12.444
-12.9815
-13.6725
-14.3131
-16.1823
-15.9588
-17.5462
-17.253
-19.7561
-19.7995
-18.7249
-18.9646
-20.1946
-20.0086
-19.3653
-19.3413
-20.0047
-20.0904
-20.1314
-20.662
-20.5213
-20.3408
-20.559
-20.9247
-20.8012
-21.1012
-21.0362
-21.0023
-20.9779
-21.0237
-21.0601
-10.2807
-8.00856
-8.60072
-9.36115
-9.66481
-7.30628
-8.02463
-6.50658
-7.21046
-5.64953