/*--------------------------------*- C++ -*----------------------------------*\
  =========                 |
  \\      /  F ield         | OpenFOAM: The Open Source CFD Toolbox
   \\    /   O peration     | Website:  https://openfoam.org
    \\  /    A nd           | Version:  8
     \\/     M anipulation  |
\*---------------------------------------------------------------------------*/
FoamFile
{
    version     2.0;
    format      ascii;
    class       surfaceScalarField;
    location    "10000";
    object      phi;
}
// * * * * * * * * * * * * * * * * * * * * * * * * * * * * * * * * * * * * * //

dimensions      [0 3 -1 0 0 0 0];

internalField   nonuniform List<scalar> 
6926
(
-1.05308
0.0710305
-0.652857
-0.575153
0.174931
-0.941648
0.0740225
-0.11292
-0.539937
0.0688489
-0.756922
-0.752278
-0.0144386
-0.635251
-0.0481787
0.234424
-1.05805
-0.0648821
0.013168
-0.583537
0.177766
-0.717704
-0.644038
0.466534
-0.586708
0.133342
0.0251472
-0.66014
-0.828081
-0.244412
-0.409726
-0.0679182
0.0526745
-0.568293
0.156254
-0.873957
-0.555702
-0.534205
0.000171151
-0.533756
0.257372
-0.680506
-0.165025
-0.767876
-0.57277
-0.794975
-0.217313
-0.210007
0.0233044
-0.38159
-0.191513
-0.574196
-0.122765
-0.751193
-0.896195
0.12969
-0.131169
-0.592822
0.119814
-0.423187
-0.812396
0.0723854
-0.511072
0.00017189
-0.528537
-0.00504798
-0.53411
-0.00349282
-0.102482
-0.938838
-0.388219
0.252407
-0.436958
-0.56308
-0.0424529
-0.10126
-0.471844
-0.185245
-0.511716
0.0459095
-0.797102
-0.113066
-0.705417
0.225661
-1.06843
-0.0014994
0.0947428
-0.787325
-0.00262166
-0.533632
-0.788735
-0.00795641
-0.612508
0.000175782
-0.525005
-0.00335962
0.153228
-0.139928
-0.827724
-0.818035
-0.527905
-0.0112528
-0.534207
-0.0323652
-0.0383869
-0.648044
-0.523781
0.0443703
-0.420776
-0.236312
-0.886582
-0.834037
0.0369351
0.000159563
-0.699401
-0.00617637
-0.867638
0.0248691
-0.983455
0.0335756
-0.727568
-0.256033
-0.533913
-0.0107255
-0.522746
-0.753593
-0.131761
-0.14349
-0.759402
-0.849007
0.000187162
-0.528043
0.00321352
-0.519904
-0.0113604
-0.174013
-0.682409
-0.389417
-0.612319
-0.528254
-0.0172059
-0.534173
-0.0219734
-0.0363951
-0.567278
-0.890082
0.0560451
-0.223853
-0.625795
0.143547
-0.0273551
0.275693
-0.391885
-0.332064
-0.558019
0.359358
-0.547875
-0.0835478
0.000177115
-0.61603
0.840962
-0.470747
-0.453763
-0.0328525
-0.958586
-0.0773632
-0.642654
-0.375951
0.0707688
-0.422385
-0.0980927
-0.533891
-0.0226722
-0.521967
-0.00891512
-0.513654
0.584358
-0.592636
-0.0690857
-0.425329
-0.5122
-0.437887
0.252505
-0.292857
-0.349065
0.0160367
-0.522934
0.461579
-0.65956
-0.0258716
-0.387626
0.000197524
-0.54668
0.0188245
-0.510652
-0.00603867
-0.51625
-0.0233639
-0.132558
-0.586246
-0.209274
-0.535604
-0.532877
-0.0185015
-0.0516417
-0.53761
-0.301366
-0.0149851
0.288996
0.869893
-0.234842
0.300144
0.00805341
-0.0535823
-0.346356
-0.284695
-0.00861798
-0.129034
-0.472423
-0.687053
-0.0295156
0.000197832
-0.586712
0.121513
-0.621775
-0.575132
0.242882
-0.991438
-0.0208535
-0.551032
-0.0688964
-0.544593
0.0134374
-0.533915
-0.034868
-0.521695
-0.0225195
-0.508362
-0.00238092
-0.511076
0.191058
-0.687221
0.672159
-0.357304
-0.383941
-0.0403499
-0.461781
0.0515087
-0.440924
0.00084225
-0.472267
0.0787544
-0.504954
-0.466579
0.107163
-0.41371
0.00021237
-0.580622
0.0341389
-0.529825
0.0379973
-0.524826
0.00253648
-0.528243
-0.0279984
0.0949341
-0.0988358
-0.531702
-0.542954
-0.542603
-0.0135088
0.359347
-0.406339
0.0320065
0.413502
-0.286752
-0.344299
-0.325624
-0.089333
0.208071
-0.895123
-0.551105
0.00945735
0.000227603
-0.596397
-0.00644613
-0.605872
-0.641764
0.0601854
-0.748556
-0.000269116
-0.537325
-0.00140933
-0.543453
-0.0429902
-0.525793
-0.0408314
-0.503384
-0.0173798
-0.493364
0.0130063
-0.523854
-0.188882
-0.497496
-0.494069
0.0511243
-0.0133592
-0.478689
-0.509493
-0.0243437
-0.461283
0.0344752
-0.540839
0.30676
-0.773591
0.000251541
0.000213714
-0.61063
0.0302207
-0.583767
0.088081
-0.111286
-0.375542
-0.457052
-0.0686546
-0.552052
-0.0185487
0.00471885
0.00261725
-0.539038
-0.551744
0.360358
-0.32869
0.000338405
0.000268271
-0.635157
-0.0347653
-0.418414
0.000390839
-0.325918
-0.00317772
-0.306061
-0.236257
-0.640766
-0.133745
-0.761378
0.00536282
0.000277169
-0.602037
0.00296433
-0.603473
-0.633403
-0.00539637
-0.688371
-0.0441525
-0.536163
-0.0384399
-0.549165
-0.0529979
-0.513627
-0.0641146
-0.456649
0.0143353
-0.494693
0.0282307
-0.551808
0.0543063
-0.5139
-0.467533
0.00717056
-0.514046
0.00966269
-0.481181
0.0131557
-0.464776
-0.0280949
-0.551184
-0.624779
0.0143627
-0.625071
0.000544008
-0.628612
0.0750652
-0.36302
-0.205318
-0.650481
-0.590314
-0.0303929
0.00383021
0.00332089
-0.546189
-0.566462
-0.618
-0.00680284
-0.605542
-0.0121193
-0.453631
0.000452553
-0.590751
-0.0144011
0.000514588
-0.457324
-0.0388526
-0.503465
-0.108637
-0.665875
-0.00799596
-0.753382
0.0117741
0.000327905
-0.614139
-0.0325894
-0.55911
-0.623944
-0.0420482
-0.693767
-0.0531086
-0.536052
-0.0432471
-0.559027
-0.0973195
-0.480422
-0.368773
-0.0735403
0.0840412
-0.550503
0.0266136
-0.578093
-0.0180182
-0.523977
-0.472396
-0.00509749
0.00681961
-0.482903
-0.515823
0.00921998
-0.467176
-0.0294168
-0.565014
-0.63821
0.0239615
-0.630364
-0.00730199
-0.668039
0.0926241
-0.765181
-0.0304516
0.0062244
0.00398245
-0.556396
-0.590631
-0.619336
-0.0178314
-0.606078
-0.0253766
-0.574875
-0.0154227
-0.591001
-0.0294791
-0.0118903
-0.56247
0.000578737
-0.496755
-0.0381544
-0.573948
-0.00804383
-0.665827
0.0780456
-0.831428
0.0925004
-0.707007
0.000367173
-0.031126
-0.435484
-0.359096
-0.295974
-0.735815
-0.0733246
-0.560047
-0.0497567
-0.582595
0.332893
-0.617625
-0.221069
-0.157893
-0.549501
0.00038753
0.0656666
-0.589556
-0.593878
0.0161518
-0.015657
-0.537737
-0.478833
0.00296061
-0.514801
-0.00158195
-0.47836
-0.0029214
-0.465837
-0.0296308
-0.58514
-0.659721
0.0156429
-0.638117
-0.0289054
-0.69171
0.0191529
0.00257423
-0.0149352
-0.544035
-0.618508
-0.61373
-0.0422187
-0.602416
-0.0366908
-0.570493
-0.0359298
-0.593476
-0.0384185
-0.0324983
-0.549885
-0.0021559
-0.559736
0.000635213
-0.535545
-0.00249443
-0.579497
0.0851708
-0.672952
-0.12691
-0.704518
0.492505
-0.395558
-0.25484
-0.302074
-0.665723
-0.366066
0.0226577
0.108155
-0.526371
-0.0830671
-0.698049
-0.0594178
-0.606244
0.0557551
-0.607713
-0.527254
0.000410053
-0.600872
0.00738172
0.0274728
-0.600877
0.00891538
-0.49067
-0.558452
0.0251893
-0.0333393
-0.47021
-0.504547
-0.0267949
-0.472381
-0.0315951
-0.612963
0.0193083
-0.490354
0.414872
0.0561736
-0.699991
0.0239245
-0.625176
-0.103721
-0.0495375
-0.0104714
-0.484026
-0.648893
-0.600069
-0.0673256
-0.58223
-0.0545296
-0.555979
-0.0734268
-0.0246011
-0.596048
-0.0822995
-0.506178
-0.00588023
-0.546161
0.0103005
-0.569401
0.000694276
-0.538733
0.0367386
-0.531065
-0.532694
-0.292504
0.152247
0.00353749
-0.663142
-0.0224786
-0.682039
0.105472
-0.771196
0.562668
-0.709353
0.00179883
0.0448114
-0.572981
-0.525878
0.000423648
-0.0388874
-0.603407
-0.00156674
-0.643565
0.02997
-0.610211
-0.601386
0.000923995
0.013751
-0.607246
0.0116403
-0.601687
-0.505824
0.0617739
-0.0301356
-0.501849
-0.453244
-0.123232
-0.379285
-0.0680932
-0.546436
0.960473
-0.645464
-0.315009
-0.368036
0.541164
-0.153819
-0.562196
-0.296194
0.426271
-0.184481
0.173082
0.696718
0.319929
0.192338
0.292666
-0.058733
-0.322827
-0.614443
-0.947795
-0.474947
-0.576569
-0.688686
0.146413
-0.553686
-0.189529
0.0032613
-0.581549
-0.60556
-0.0639148
-0.316086
-0.371773
-0.00291981
-0.509139
0.0193019
-0.555163
-0.424451
0.135484
0.0237263
-0.592433
0.000750114
-0.502745
-0.439732
0.0609134
-0.490553
-0.195068
0.100155
-0.782194
0.0632701
-0.453667
-0.72155
-0.0606444
-0.00898781
-0.762208
-0.67353
-0.00521524
-0.072523
-0.495243
-0.531537
0.000443691
-0.599162
-0.00180003
0.0201535
-0.59359
-0.168
-0.455411
0.0259497
-0.622409
-0.60432
-0.00200187
0.0475946
-0.717375
-0.581461
-0.575681
-0.305453
-0.437183
-0.277253
1.01864
-0.0482193
0.373176
-0.50403
0.427087
-0.0704034
-0.551935
0.530858
-0.132743
-0.669087
-0.179042
-0.0184523
-0.703098
0.656844
-0.0177739
-0.657523
0.604485
0.0216253
-0.0438794
-0.58223
-0.0824137
0.779132
-0.410597
0.135584
0.467351
0.411033
0.0172172
0.397705
-0.0293516
-0.40193
-0.788194
-0.638695
0.208539
-0.430736
-0.397487
0.165329
-0.592804
0.0450653
-0.690529
-0.429444
0.179022
-0.174029
-0.0824014
0.238921
-0.472606
-0.457095
0.0359151
-0.525752
0.0453781
-0.576814
-0.364638
0.0603905
0.0287051
-0.620388
-0.442625
0.000793957
0.520225
-0.362101
-0.0948542
-0.104287
0.682708
-0.0865082
-0.13306
0.595874
-0.00916277
-0.550786
0.574416
-0.0020052
0.0375098
-0.799717
-0.708543
0.142092
-0.261262
-0.376073
-0.389914
0.000468296
-0.598115
-0.000604005
-0.0101985
-0.595922
0.0799106
-0.647551
-0.812684
-0.611063
-0.013348
0.141868
-1.1365
-0.745047
0.984561
-0.10559
-0.188556
0.462203
-0.00174819
-0.611503
0.526927
-0.0481671
-0.727598
-0.0629475
-0.0407927
-0.660609
-0.74389
0.0495485
-0.0582201
-0.573559
0.00271211
0.637806
-0.00300252
-0.637515
-0.498525
0.0137547
-0.00183399
0.455431
0.792886
0.329876
0.0793231
0.410296
0.00462674
0.434989
-0.00213736
-0.207393
-0.939583
-0.787048
0.277339
-0.509497
0.0405986
-0.588338
0.0950531
-0.546661
-0.260172
0.0745563
-0.36661
-0.0675905
-0.082153
0.111777
-0.50223
-0.503332
0.0567734
-0.537147
0.102098
-0.650208
-0.383041
0.000805892
0.0130722
-0.632666
0.423707
-0.466709
-0.051852
-0.0471905
-0.547128
-0.0526407
-0.0377622
0.566588
-0.00133438
0.637963
-0.00216207
0.11615
-0.915867
-0.853655
-0.0495994
-0.571662
0.766504
-0.66963
-0.0974268
0.000552046
0.000518204
-0.595947
-0.00169957
0.00124211
-0.597768
-0.243689
-0.426551
0.000610613
0.707353
-0.416077
-0.340876
0.0464544
-0.125529
-0.6407
-0.786948
-0.475077
-0.0433889
1.01381
0.84137
-0.0610598
-0.0747832
0.550939
-0.0257602
-0.633538
0.526807
0.0585635
-0.750204
0.0537195
0.640016
-0.639906
-0.00311206
-0.895643
0.151753
-0.697959
-0.197685
-0.567076
0.0622617
-0.269416
-0.366404
0.692617
0.10027
-0.00534197
0.00327703
-0.0033577
-0.637434
-0.432986
0.639953
0.145354
0.453851
0.0357679
0.442162
-0.00254655
0.580507
-0.0317048
-0.136965
-0.170048
-0.632571
-0.646674
0.123002
-0.5919
0.0769528
-0.570237
0.0872047
-0.522088
-0.309243
0.000758905
-0.37749
0.000655858
-0.0673782
0.0745858
-0.509437
-0.513937
0.0737342
-0.508783
0.00130493
-0.63844
-0.63526
0.00340013
0.425137
-0.477159
0.000169483
0.000457192
-0.529565
-0.000234288
-0.000739458
0.637923
-0.00129479
0.639813
-0.00195974
0.223786
-1.13965
0.727297
-0.272302
-0.698684
-0.0174116
0.163616
-0.562281
-0.587832
-0.588819
-0.00660959
-0.590813
0.00254629
0.0049685
-0.604436
-0.699533
0.000680017
0.0561344
-0.646337
-0.673595
-0.283401
0.0894963
-0.538662
-0.22443
0.399851
-0.577111
-0.715925
0.896987
-0.0131855
-0.0388363
0.425006
0.510817
0.559343
0.454466
0.822653
-0.026003
-0.00233441
0.544944
-0.0438974
-0.609179
0.526645
0.141098
-0.910895
0.355435
-0.638831
-0.00443283
0.47311
0.156672
-0.632894
-0.590843
-0.245649
-0.4837
-0.304828
0.0128612
-0.624914
-0.707542
0.2185
0.0326808
0.00365633
-0.00154992
-0.639541
-0.416469
0.542554
0.0566509
0.480883
-0.00295229
0.611599
-0.0336386
0.569846
-0.0566066
-0.031575
-0.5115
-0.555247
-0.102571
0.0483219
-0.484413
0.0553646
-0.570312
0.0635126
-0.546545
0.0692803
-0.516783
-0.636073
0.00157143
-0.636546
0.00112885
-0.0685716
0.0673342
-0.5082
-0.508774
0.00939432
-0.516872
-0.636495
0.00145478
-0.636981
0.00089276
-0.637375
0.000562964
-0.637711
0.000101904
-0.000527198
0.639435
-0.000915879
0.421406
0.0497439
-0.39077
0.386644
0.160799
-0.191983
-0.947669
-0.0519126
-0.838754
-0.0417825
0.135336
-0.655834
-0.624646
-0.581786
-0.0292602
-0.533327
-0.0459126
0.045015
-0.522207
-0.752133
0.000687629
-0.484452
-0.161205
0.323693
-0.765469
-0.675634
-0.424204
-0.475859
0.85995
0.0127645
0.415481
0.405632
0.265074
0.575413
-0.508712
1.06806
0.45657
0.831368
-0.000401308
-0.0818606
0.534536
-0.051789
-0.519311
0.526402
0.134007
0.130855
-0.29473
-0.634962
-0.00541837
-0.542925
-0.094401
0.276525
-0.179182
-0.488113
0.519705
0.0555295
-0.433377
0.129316
-0.320853
0.00390678
0.0105217
-0.653969
-0.283246
0.540899
-0.00336585
0.627562
-0.0189148
0.640158
-0.103951
0.538644
-0.0607146
0.0663613
-0.593136
-0.00806646
-0.455111
-0.507949
-0.0389183
0.0200467
-0.465541
0.0390182
-0.545818
0.0533216
-0.530587
0.0615397
-0.510988
-0.636498
0.00157438
-0.636967
0.0015984
0.00968505
-0.509065
-0.0028714
-0.495643
-0.532366
0.0169482
-0.637539
0.00146424
-0.638188
0.00121185
-0.638845
0.000759778
6.20026e-05
0.412484
0.00800594
0.389093
0.0472946
-0.24137
0.140903
0.261265
0.221552
-0.186397
-0.0411853
-0.906484
-0.0344819
-0.845458
0.0117435
0.0683241
-0.735902
-0.642162
-0.376224
-0.311851
0.115616
-0.446825
-0.315354
0.0936337
-0.300487
-0.787351
0.000735343
-0.443282
-0.0404823
-0.102716
-0.373843
-0.0768789
-0.620266
-0.486377
-0.17765
1.04812
0.734724
0.333331
0.290065
-0.272849
0.388416
0.0702105
0.484929
0.133349
0.898635
0.820535
0.0364136
0.726612
0.0120625
0.525956
-0.0513432
-0.497912
0.52611
0.105808
-0.437326
0.0702693
-0.00544464
-0.618244
-0.00619683
0.297069
-0.104369
-0.371882
-0.527854
-0.0204901
-0.0989279
-0.483586
0.00401559
0.0483344
-0.706319
0.600084
-0.00365475
0.645976
-0.0217803
0.625288
-0.00404473
0.508069
-0.0733747
0.520726
-0.055484
-0.0934219
-0.538633
-0.00725417
-0.42781
-0.476185
-0.0256201
0.00964998
-0.449571
0.0321176
-0.524614
0.0488669
-0.517914
-0.0168116
-0.497048
0.542548
-0.513808
-0.0271416
0.0117566
0.0242077
-0.516325
-0.00451356
-0.466922
-0.477945
-0.0343991
-0.447588
-0.029145
0.424792
-0.0122457
-0.022036
0.390891
0.0062076
0.11482
-0.163825
0.189909
0.42338
0.225027
-0.1673
0.240984
-0.130312
0.0418683
-0.948352
0.0355853
-0.839175
-0.752517
0.000751998
-0.271671
0.0877028
-0.551934
-0.467906
0.101015
-0.454206
0.00999776
-0.413201
-0.430826
-0.01172
0.0088195
-0.423145
0.0317428
-0.564306
-0.548056
-0.110581
0.789901
0.187906
0.58737
0.624716
0.110008
-0.468176
0.563637
0.23787
-0.0251289
0.483755
0.0814392
0.536839
-0.051152
0.481611
-0.804699
0.715487
0.101275
0.0894345
0.521221
-0.0464538
-0.509048
0.52577
0.0890866
-0.584187
0.145408
0.125855
-0.563209
-0.00670018
0.273611
-0.322498
-0.0554818
-0.565096
0.0310452
-0.0593218
-0.411488
-0.48432
-0.0197556
-0.711344
0.200876
-0.195851
-0.0690224
-0.35552
-0.0068139
0.608355
-0.00484696
0.530406
-0.0263821
0.507521
-0.06017
-0.0490561
0.514793
-0.0347691
-0.529484
-0.00881933
-0.409341
-0.452887
-0.0229519
0.00632863
-0.432948
0.0306688
-0.506415
-0.0140575
-0.520668
-0.464143
-0.0374187
0.609107
-0.494712
-0.141537
0.104539
0.00420662
-0.36659
-0.457817
-0.0712945
-0.434359
-0.0526023
0.416124
-0.0374788
-0.0402708
0.297587
0.132
-0.159963
0.309249
0.0406224
0.211519
-0.146455
0.216048
-0.142364
0.230356
-0.0870571
0.193168
-1.14152
0.0429462
-0.688953
-0.710301
0.00072977
-0.426439
-0.0036351
-0.122847
0.0875768
-0.516664
-0.489738
0.0645742
-0.508783
0.00118912
-0.405571
-0.423944
-0.0109203
0.0516267
-0.528356
-0.531198
-0.0130466
0.759815
0.424795
-0.107342
0.472448
0.055607
0.557094
0.0369009
0.525341
0.59958
0.0251361
0.555991
0.117654
-0.277573
0.422324
0.0931193
0.0382728
0.526922
-0.00172754
0.487414
0.286285
-0.082248
-0.0267356
0.626316
-0.82042
0.729093
0.192601
0.126845
0.0480113
0.796662
0.518281
-0.0389645
-0.400054
0.525436
-0.0362957
0.622534
0.232414
0.367889
-0.684681
0.112886
-0.357944
-0.0238766
-0.500013
0.0467382
-0.00700451
-0.424239
-0.544984
-0.00638671
-0.00565096
-0.54511
-0.146385
-0.0416071
0.510832
0.547487
-0.0219278
0.534119
-0.0529795
-0.0521513
0.506774
-0.0378554
-0.51458
-0.0100869
-0.392926
-0.432305
0.0258772
-0.0268754
-0.43195
-0.340159
-0.119777
0.00892949
-0.529402
-0.518093
-0.0399932
0.506744
-0.388756
-0.259525
-0.200005
0.633419
-0.318934
-0.367087
0.173369
-0.251056
0.511164
0.190193
0.151959
0.421278
-0.169136
0.219948
-0.150355
0.207912
-0.11992
-0.937465
-0.204056
0.305847
-0.731497
-0.263303
-0.405074
0.000620697
-0.425076
-0.000634031
-0.42439
-0.00318955
-0.0836674
0.0755868
-0.508583
-0.508831
-0.00262158
-0.504972
-0.417811
0.0013195
0.0558334
-0.508602
-0.51322
-0.870494
-0.0669707
-0.887644
0.0171499
0.0185352
0.633938
-0.00779661
0.535851
0.054677
0.539318
0.0368216
0.526792
0.552875
0.028252
0.477437
0.0625411
0.387912
-0.0085072
0.0400226
0.485172
0.407323
-0.00215679
-0.0497577
0.575897
0.684394
-0.0580784
0.746017
-0.061623
0.906465
-0.160448
0.362534
-0.343713
0.945397
0.0392681
0.68514
0.452858
0.945109
0.131908
0.683289
-0.516012
0.504262
-0.0298566
-0.0295406
0.525149
-0.193555
0.169377
0.748177
-0.518133
0.131005
-0.373097
0.00814909
-0.423192
0.0456912
0.545786
-0.00394969
-0.00571093
0.435864
-0.19206
-0.390189
-0.301281
0.219012
0.0471356
-0.042146
0.499272
0.505816
0.560937
-0.0487466
-0.085534
0.539329
0.0313622
-0.520065
0.0241094
-0.447485
-0.395692
0.0147321
-0.0348079
-0.411874
-0.511258
-0.126612
0.00338026
-0.572776
0.471581
-0.557737
-0.239682
0.53853
-0.309738
-0.0385979
0.323401
0.25613
-0.14459
0.213823
-0.163011
0.207228
-0.149671
-0.839779
-0.0957733
-0.668837
0.000459859
-0.424755
0.00030058
-0.42466
-0.000364056
-0.422411
0.00141112
0.0122371
-0.026565
-0.494255
-0.499215
-0.508327
0.00467426
0.0343726
-0.51623
-0.500795
0.523466
-0.325294
0.164361
-0.84851
-0.05824
-0.307894
0.0595932
0.566548
0.0523632
0.538165
0.0494727
0.526667
0.0893543
0.47746
0.48538
0.0203087
0.432915
0.0175378
0.401399
-0.00258338
0.0315221
0.451493
0.46714
-0.0315174
-0.207907
0.725726
-0.104375
0.363607
-0.407558
0.209589
-0.127325
0.667542
-0.00343838
-0.599657
-0.151613
-0.0925637
0.394547
0.682471
0.431327
0.416079
0.588437
0.154445
-0.0851496
0.685853
-0.521718
0.485481
0.00638
-0.0261096
0.0297371
0.524885
0.486811
-0.0434762
-0.392373
0.100187
-0.367516
0.0401096
0.598807
-0.0418192
-0.202907
0.282831
-0.271984
-0.252481
0.234031
-0.321522
0.148162
-0.0990522
0.519334
-0.00848846
0.408708
0.575518
-0.084936
0.0268898
-0.532223
0.0401966
-0.484301
-0.390303
-0.0453852
-0.0721965
-0.294292
0.671498
-0.541345
-0.369836
-0.0278897
0.245347
-0.479682
0.162257
-0.458254
0.469769
-0.252237
0.260109
-0.190877
0.216128
-0.171911
-0.764791
0.00017975
-0.42475
0.000454517
-0.42492
0.000560712
-0.424245
0.00146989
-0.527626
0.0207103
0.00412236
-0.011745
-0.486633
-0.490419
0.0523943
-0.541735
-0.460145
-0.436389
0.292856
-0.822837
-0.000193774
-0.0794832
0.144266
0.523654
0.539428
0.0612385
0.526399
0.140193
0.475828
0.0746776
0.434305
0.446754
0.00646978
0.421925
-0.00298789
0.0168811
0.432028
0.42062
-0.0053837
0.29718
0.019066
0.604568
0.0562188
-0.315519
0.0887192
-0.424693
-0.0181503
0.582167
0.018963
-0.523641
-0.052665
-0.0340382
0.241962
0.594954
0.572891
0.400101
0.33912
0.190864
0.524726
0.438072
0.0402507
-0.630725
0.378801
0.258305
-0.13195
0.47984
-0.144516
-0.0724187
-0.0529407
0.52546
-0.339799
0.0724698
0.58449
-0.0507906
0.242695
0.069811
-0.221892
0.212107
-0.262417
0.174926
-0.297164
0.105527
-0.660974
0.4131
0.197084
-0.226576
0.269712
-0.0875794
-0.0175832
-0.560025
0.146238
-0.658428
-0.316261
-0.137008
-0.473545
0.247652
-0.455231
0.268309
-0.278222
0.193661
-0.383606
0.233416
-0.225544
0.219784
-0.194533
-0.424824
0.000253988
-0.425177
0.000710999
-0.425132
0.00144724
-0.557161
0.0310048
-0.0496459
-0.0710448
-0.365942
-0.519354
0.143594
-0.702912
-0.387596
-0.52922
-0.000760838
-0.424834
-0.000183632
-0.0745417
0.525777
0.526125
0.166619
0.499973
0.18199
0.368516
0.0308708
0.420315
0.431762
-0.00336678
0.00502315
0.424017
0.43006
-0.00368218
0.453018
-0.00389182
0.513131
-0.00389397
-0.439107
-0.00139378
-0.45517
-0.00208688
0.535807
-0.00371308
-0.505081
-0.00275469
-0.003312
0.238915
0.524839
0.525094
-0.203386
0.596162
-0.288918
0.516722
0.0419088
0.0615744
0.418393
0.101698
-0.36528
0.479069
-0.189628
0.199509
0.515579
-0.358122
0.20604
-0.236653
0.186342
-0.257248
0.135009
-0.196076
0.251055
-0.245075
0.246082
-0.0873054
0.358953
-0.138312
-0.558721
-0.0242654
-0.386511
-0.1284
-0.369411
0.116001
-0.377571
0.228645
-0.27345
0.158327
-0.313288
0.217588
-0.223348
-0.425359
0.000436593
-0.425658
0.00123703
-0.556066
0.000352328
-0.0955171
-0.658021
-0.583867
-0.162853
-0.678371
-0.424766
-0.000829531
-0.425463
-8.00168e-05
0.179381
0.513363
0.51553
0.173888
0.508076
-0.00405323
0.40344
0.00594987
0.419388
0.421549
-0.000898318
0.421217
-0.00335065
0.421625
-0.00429965
0.422293
-0.0045615
-0.424527
-0.00163249
-0.424129
-0.00248537
0.422974
-0.00439424
-0.423599
-0.00328464
-0.00393679
0.208106
0.516498
0.52956
-0.250831
0.481713
-0.343872
0.277011
0.10877
0.136096
0.135958
0.444809
-0.127436
0.317141
-0.188442
0.198128
0.505893
-0.232951
0.202338
-0.227571
0.156666
-0.209342
0.227446
-0.216527
0.253267
-0.136054
0.278479
-0.21346
-0.473661
0.00441222
-0.274922
-0.0970601
-0.267939
0.085357
-0.304601
0.192194
-0.248056
0.142193
-0.263288
-0.426015
0.000793965
-0.514761
-0.0400676
-0.105066
-0.715808
-0.68858
-0.492833
-0.398998
-0.425431
-0.000861595
-0.426238
0.000142662
0.179717
0.507533
0.506806
-0.0172702
0.521293
-0.00482367
0.414213
0.419989
-0.00149867
0.420849
-0.00421143
0.421778
-0.00522779
0.422671
-0.00545507
-0.425208
-0.00185538
-0.424792
-0.00290152
0.42349
-0.005213
-0.424209
-0.00386725
-0.00465587
0.212534
0.502092
0.491262
0.133703
0.483968
-0.398461
0.379795
0.182443
-0.115351
0.296438
0.0171274
-0.00302419
0.49179
-0.204126
0.178893
-0.183723
0.207043
-0.161077
0.230621
-0.127631
0.245033
7.4215e-05
-6.04301e-05
6.30362e-06
-2.00492e-05
-0.190804
-0.379917
0.00412693
-0.193692
-0.0748478
-0.188964
0.0716883
-0.234096
9.48402e-05
0.000135635
-0.000156237
-0.510885
-0.00308229
-0.401814
-0.326834
-0.119653
-0.246267
-0.349887
-0.275347
-0.337139
-0.225984
-0.363817
-0.426254
-0.000845374
-0.499434
-0.0113083
0.0244384
0.499495
0.514701
-0.0224183
0.538888
0.418384
-0.0056689
0.420584
-0.00641196
0.422083
-0.00672628
0.423162
-0.00653487
-0.426022
-0.00208692
-0.425554
-0.00336946
0.424107
-0.00615727
-0.424913
-0.00450831
-0.00546252
0.0692578
0.555708
0.568326
0.156846
0.509565
-0.0614326
0.325877
-0.0864548
0.255263
-0.0258734
0.231742
0.362458
0.0351389
0.430777
-8.47485e-06
9.37747e-05
-0.000145687
-4.65028e-05
5.28538e-05
-3.69707e-08
-0.154087
-0.300678
0.00311475
-0.125118
-0.0618836
-0.123966
9.57713e-06
0.00054027
-0.000454993
-2.53188e-05
0.000114465
0.00130323
0.00363757
-0.00493119
0.164473
-0.569369
-0.408628
-0.303143
-0.322091
-0.247652
-0.315472
-0.207153
-0.310751
-0.494361
-0.00591868
-0.477791
-0.102887
0.043291
0.491342
0.535574
0.542821
-0.00960238
0.498825
0.0375845
0.451363
0.0407357
0.423188
0.0216396
-0.487131
-0.00931645
-0.451296
-0.0392047
0.41328
0.00375085
0.421772
-0.0139546
-0.034032
0.315115
0.397438
0.100711
0.347422
-0.0221337
0.261556
0.256946
0.289911
0.0331741
0.0986348
0.230649
0.110114
0.353837
-1.25117e-05
-8.00693e-05
8.41361e-05
9.7842e-05
4.88092e-05
-0.000104283
0.000106869
-2.59347e-06
-0.132816
-0.229745
-1.7408e-06
0.000516697
-7.72851e-05
8.74945e-05
0.00162971
0.000850954
-0.00117738
0.000976675
0.00265917
-0.423043
-0.288728
-0.284008
-0.285735
-0.240819
-0.281806
-0.182709
-0.260859
-0.489688
0.00597879
-0.175493
-0.350437
0.10641
0.495047
0.632381
0.485381
0.184585
0.432055
0.0940617
0.406676
0.0470186
-0.550908
0.0519037
-0.432514
-0.157599
0.397052
0.0133743
0.401729
-0.0186307
-0.064817
0.176548
0.321601
0.0620948
0.263193
0.135664
0.219917
0.190652
0.275807
0.128032
0.238281
0.207112
0.274757
5.48981e-05
-0.000555611
0.000488222
9.0149e-05
-7.23651e-05
0.000138337
1.73814e-05
-0.000126013
0.000126907
-3.46681e-06
-0.00160295
-0.00480862
0.00646655
0.00188298
0.000714757
-0.000968003
-7.54659e-06
0.000446972
-9.85247e-05
6.00247e-05
0.00123485
0.000592821
0.000749348
0.00190228
-0.303872
-0.268864
-0.270016
-0.256538
-0.217003
-0.247513
-0.166074
-0.313291
-0.510532
-0.40243
-0.0561983
0.427723
0.274436
0.416058
0.19625
0.394945
0.115175
0.378479
0.0634843
-0.29615
0.0732576
-0.179538
-0.364023
-0.0897264
0.36888
0.0229733
0.365382
-0.0151321
-0.063458
0.12542
0.258276
0.170352
0.240217
0.15382
0.247406
0.182685
0.225947
0.237734
0.219708
6.31353e-05
-0.000528585
0.000125607
-5.9591e-05
0.000146923
-2.60459e-06
-0.000128095
0.000128857
-4.19748e-06
-0.00211596
-0.000934783
0.0014479
-0.00122992
-0.00351552
0.00217119
0.000931457
-0.00121963
0.00143455
0.000515075
-8.40482e-06
0.000356861
-0.00010396
3.59163e-05
0.000950495
0.00039174
0.000577129
0.00131676
-0.303853
-0.235027
-0.24988
-0.223661
-0.42006
-0.197084
-0.355288
-0.12097
-0.212815
-0.0692149
0.311501
0.200669
0.346317
0.161434
0.3484
0.113092
0.341981
0.0699037
-0.291243
-0.10111
-0.303101
-0.0778679
0.33311
0.0318445
0.322838
-0.00486065
-0.0437208
0.162832
0.231205
0.182202
0.206577
0.223654
0.178257
-0.00259479
-0.000953875
0.00143258
5.02821e-05
-0.000453222
0.00013499
-4.76267e-05
0.000139293
-1.2999e-05
-0.000120414
0.000119925
-3.6562e-06
-0.00159213
-0.000572581
-0.00095432
-0.00251089
0.00240463
0.000682167
-0.000915594
0.0016678
0.000698254
0.00109943
0.00036611
-7.16648e-06
0.000260081
-0.000100626
1.61727e-05
0.000731923
0.000236976
0.000450363
0.000859229
-0.289877
-0.19503
-0.314111
-0.17285
-0.283405
-0.151677
-0.230477
-0.122143
0.268687
0.155636
0.297043
0.133078
0.306629
0.103506
0.305411
0.0711217
-0.242939
-0.0886485
-0.264765
-0.0560419
0.297551
0.0397042
0.284563
0.00812768
-0.0239226
-0.00335846
-0.00178995
0.00255367
-0.00192981
-0.00061618
3.37554e-05
-0.000351956
0.000129606
-3.78871e-05
0.000123465
-1.647e-05
-0.000105525
0.000105306
-3.37584e-06
-0.00120541
-0.000321491
-0.000749046
-0.00172807
0.00260652
0.000959697
-0.00116155
0.00185363
0.000496342
0.00129424
0.000503523
0.000848983
0.000249073
-5.11684e-06
0.000164595
-9.25367e-05
3.23748e-06
0.000568521
0.000119075
0.000352813
0.000501303
-0.00444105
-0.00303801
0.00412051
-0.00250834
-0.00121158
-0.00143232
-0.000389285
1.94881e-05
-0.000241785
0.000114588
-2.89192e-05
0.000101037
-1.21261e-05
-7.92751e-05
7.58994e-05
-0.000916878
-0.000153668
-0.000589661
-0.00111891
0.00256802
0.00014519
-0.000106709
0.00204688
0.000766498
0.00143318
0.000357362
0.00100282
0.000349714
0.000653627
0.000163751
-2.90443e-06
7.49935e-05
-7.60374e-05
0.000436874
3.53991e-05
0.000276833
0.000221567
-0.00574687
-0.00496634
0.00627234
-0.00340642
-0.00213983
-0.00186027
-0.000783839
-0.00107224
-0.00023391
9.67305e-06
-0.000136778
9.11983e-05
-1.89937e-05
6.37734e-05
-0.000696993
-4.65373e-05
-0.000466104
-0.000643131
0.000828887
-0.00662352
0.0083627
0.00203423
0.000157825
0.00160937
0.000590402
0.00111264
0.000247563
0.000779412
0.000224222
0.000503609
9.67234e-05
-1.04383e-06
0.000325721
-1.29663e-05
-0.00779936
-0.0118092
0.0138625
-0.0045869
-0.00378667
-0.00256866
-0.00143127
-0.00137004
-0.000486085
-0.000794151
-0.000136535
2.65421e-06
-4.81504e-05
4.47799e-05
-0.000528961
1.6006e-05
-0.000364049
-0.000276429
-0.000245799
-0.00288057
0.00395534
0.000583477
-0.00517271
0.00161855
0.000148576
0.00127441
0.000428663
0.000861983
0.00016474
0.000600774
0.000127487
0.00037456
4.75043e-05
0.000207556
-0.000220523
-0.00667676
0.004607
-0.00573239
-0.00650129
-0.00989458
-0.00361055
-0.00274585
-0.00191008
-0.000891169
-0.00100749
-0.000274114
-0.000591188
-7.39808e-05
-3.37054e-06
-0.000384903
3.64481e-05
-0.000480791
-0.000164994
0.000399939
-0.000272118
-0.00202496
0.000392602
-0.00394665
0.00128744
0.00013554
0.00100586
0.000285154
0.000669726
9.54497e-05
0.000453829
4.87925e-05
0.000255062
-0.00638749
-0.000642516
0.000352467
-0.00558884
0.00368974
-0.00542964
-0.00807511
-0.00282168
-0.00183496
-0.00138381
-0.000513427
-0.000728559
-0.000138604
-0.000429148
-2.93336e-05
-0.000243351
0.0002798
-0.000466538
4.81993e-05
-6.2437e-05
-0.000415053
-2.20425e-05
-0.000278931
-0.00135349
0.000248814
-0.00290799
0.00101987
0.000121196
0.000787711
0.000167692
0.000504278
4.45466e-05
0.000303853
-0.00466317
0.00809166
-0.00981678
-0.00540731
-0.000822588
-0.0046644
0.0029165
-0.00450296
-0.00639422
-0.00216758
-0.00105644
-0.00097383
-0.000266244
-0.000517474
-5.26032e-05
-0.000272689
-0.000282121
0.000728267
-0.000912676
-0.000400751
3.39019e-05
-0.000352123
5.11977e-05
-0.000271336
-0.000833312
0.000139828
-0.00202749
0.000806073
0.000102367
0.000605465
6.72194e-05
0.000348401
-0.00293288
0.00686798
-0.00859815
-0.0038786
0.00656064
-0.00455587
-0.000924226
-0.00387451
0.00228523
-0.00375027
-0.0048076
-0.00160378
-0.000433619
-0.000661666
-0.000119607
-0.000325287
2.42474e-06
0.00100983
-0.0012944
-0.000237771
0.000565311
-0.000340943
2.26905e-05
-0.00029447
7.43386e-05
-0.000253433
-0.000440462
5.48198e-05
-0.00127557
0.000640456
6.67068e-05
0.000415619
-0.00145639
0.00432148
-0.0057972
-0.00236156
0.00535205
-0.00319996
0.00519955
-0.00383829
-0.000959336
-0.00321907
0.00172098
-0.00312667
-0.00327997
-0.00110117
-3.30878e-06
-0.000444911
0.000294611
0.00103358
-0.0013258
1.97068e-06
0.000770103
-0.000198827
0.00042325
-0.000288378
1.66146e-05
-0.00024286
6.40026e-05
-0.000227337
-0.000158858
-2.51699e-05
-0.000609224
0.000482327
-3.27643e-06
0.00487311
-0.00632632
-0.00119241
0.00315257
-0.00189144
0.00404748
-0.00265264
0.0040126
-0.00322535
-0.000917399
-0.00265964
0.00121003
-0.00262945
-0.00174522
-0.000448206
0.000486106
0.000761775
-0.000953306
0.000247397
0.000788157
1.5643e-06
0.000569694
-0.000165224
0.00030012
-0.000240497
1.40324e-05
-0.000198875
3.59033e-05
-0.00019097
6.30848e-06
-0.000126898
0.00140347
0.00475039
-0.00615756
-3.8937e-06
0.00368495
-0.000975171
0.0022365
-0.0015081
0.00290423
-0.00217358
0.00293744
-0.00274258
-0.00078958
-0.00214477
0.000650969
-0.0021937
0.000494408
6.32127e-06
-1.46783e-05
0.000417474
0.000591687
0.000206657
0.000583108
1.23102e-06
0.000403272
-0.000136577
0.00019642
-0.000198285
1.31165e-05
-0.000159515
4.89466e-06
-0.000120589
0.00278602
0.00405285
-0.005436
0.00115497
0.00359109
-2.70662e-06
0.00271265
-0.000797556
0.0015263
-0.00119941
0.00195335
-0.00177989
0.00194464
-0.00234185
-0.00052482
-0.00154254
0.000254212
-0.00021172
0.000451919
0.00042392
-1.44464e-07
0.000354346
0.000443964
0.000171613
0.000412737
9.58939e-07
0.000265577